/home/casassa/SVN_DEV1218/bin/Linux-ifort_openmpi_i64_clut/std//Pcrystal
/data/casassa/836559
script started on node79
MWall BN Nanotubes - base moche Debug
SLAB
78
2.51
2
5  -0.33333333333 0.33333333333 0.
7   3.33333333330E-01 -3.33333333330E-01  0.00000000000E+00
NANOMULTI
2
WALL
1
ROLLINGV
7 0
OPTWALL
ENDWALL
WALL
2
ROLLINGV
15 0
OPTWALL
ENDWALL
END
END
5  3
2 0 6  2.  0.
2 1 2  3.  0.
2 1 1  0.  0.
7  3
2 0 6  2.  0.
2 1 2  5.  0.
2 1 1  0.  0.
99 0
END
DFT
PBE
END
TOLINTEG
7 7 7 7 14
SHRINK
4 4
TOLDEE
6
END

Wed Nov 20 12:05:11 CET 2019
 PROCESS            4  OF           16  WORKING
 PROCESS            5  OF           16  WORKING
 PROCESS            6  OF           16  WORKING
 PROCESS            3  OF           16  WORKING
 PROCESS           13  OF           16  WORKING
 PROCESS            8  OF           16  WORKING
 PROCESS           10  OF           16  WORKING
 PROCESS           12  OF           16  WORKING
 PROCESS            1  OF           16  WORKING
 PROCESS            7  OF           16  WORKING
 PROCESS           11  OF           16  WORKING
 PROCESS            2  OF           16  WORKING
 PROCESS            0  OF           16  WORKING

         
 *******************************************************************************
 *                                                                             *
 *                               CRYSTAL17                                     *
 *                      public : 1.0.1 - Feb 1st, 2017                         *
 *                       HTTP://WWW.CRYSTAL.UNITO.IT                           *
 *                                                                             *
 *                              MAIN AUTHORS                                   *
 *                                                                             *
 *  R. DOVESI(1,11), V.R. SAUNDERS(2), C. ROETTI(1,11), R. ORLANDO(1,11),      *
 *  C.M. ZICOVICH-WILSON(1,3), F. PASCALE(4), B. CIVALLERI(1,11),              *
 *  K. DOLL(5), N.M. HARRISON(2,6), I.J. BUSH(7), Ph. D'ARCO(8),               *
 *  M. LLUNELL(9), M. CAUSA'(10), Y. NOEL(8), L. MASCHIO(1,11), A. ERBA(1,11)  *
 *  M. RE'RAT(14), S. CASASSA(1,11)                                            *
 *                                                                             *
 *        CONTRIBUTIONS TO THE CODE HAVE ALSO BEEN GIVEN BY                    *
 *                                                                             *
 *  M. FERRABONE(1,11), M. DE LA PIERRE(1,11), M. FERRERO(1,11),               *
 *  J. BAIMA(1,11), E. ALBANESE(1,11), M.F. PEINTINGER(12), R. BAST(13),       *
 *  B. KIRTMAN(15), V. LACIVITA(1,11), R. DEMICHELIS(1,16)                     *
 *  G. BRANDEBURG(17), S. SALUSTRO(1,11), G. SANSONE(1,11)                     *
 *  M.T. RUGGIERO(18)                                                          *
 *                                                                             *
 * (1) THEORETICAL CHEMISTRY GROUP - UNIVERSITA' DI TORINO - TORINO (ITALY)    *

 * (2) COMPUTATIONAL SCIENCE & ENGINEERING DEPARTMENT - STFC DARESBURY (UK)    *
 * (3) UNIVERSIDAD AUTONOMA DEL ESTADO DE MORELOS - CUERNAVACA (MEXICO)        *
 * (4) UNIVERSITE' DE LORRAINE - NANCY (FRANCE)                                *
 * (5) UNIVERSITAET STUTTGART- STUTTGART (GERMANY)                             *
 * (6) IMPERIAL COLLEGE - LONDON (UK)                                          *
 * (7) OXFORD E-RESEARCH CENTRE - OXFORD (UK)                                  *
 * (8) UPMC - SORBONNE UNIVERSITES - PARIS (FRANCE)                            *
 * (9) UNIVERSIDAD DE BARCELONA - BARCELONA (SPAIN)                            *
 *(10) UNIVERSITA' DI NAPOLI "FEDERICO II" - NAPOLI (ITALY)                    *
 *(11) NIS - NANOSTRUCTURED INTERFACES AND SURFACES - TORINO (ITALY)           *
 *(12) MPI FUER CHEMISCHE ENERGIEKONVERSION - MUELHEIM AN DER RUHR (GERMANY)   *
 *(13) UNIVERSITY OF TROMSO - TROMSO (NORWAY)                                  *
 *(14) UNIVERSITE' DE PAU ET DES PAYS DE L'ADOUR - PAU (FRANCE)                *
 *(15) UNIVERSITY OF CALIFORNIA SANTA BARBARA - SANTA BARBARA (USA)            *
 *(16) CURTIN UNIVERSITY - PERTH (AUSTRALIA)                                   *
 *(17) UNIVERSITY COLLEGE LONDON - LONDON (UK)                                 *
 *(18) CAMBRIDGE UNIVERSITY - CAMBRIDGE (UK)                                   *
 *                                                                             *
 *******************************************************************************
 EEEEEEEEEE STARTING  DATE 20 11 2019 TIME 12:05:12.7
 MWall BN Nanotubes - base moche Debug                                           
 PROCESS           15  OF           16  WORKING
 PROCESS            9  OF           16  WORKING
 PROCESS           14  OF           16  WORKING

 SLAB CALCULATION
 SYSTEM AND LATTICE                   :  HEXAGONAL   
 TWO-SIDED PLANE GROUP N. 78          :  P -6 M 2        
 CORRESPONDING SPACE GROUP N. 187

 LATTICE PARAMETERS  (ANGSTROMS AND DEGREES) - CONVENTIONAL CELL
           A              B            GAMMA
        2.51000        2.51000      120.00000


 NUMBER OF IRREDUCIBLE ATOMS IN THE CONVENTIONAL CELL:    2

 INPUT COORDINATES

 ATOM AT. N.              COORDINATES
   1   5    -3.333333333300E-01  3.333333333300E-01  0.000000000000E+00
   2   7     3.333333333300E-01 -3.333333333300E-01  0.000000000000E+00

 *******************************************************************************

 << INFORMATION >>: FROM NOW ON, ALL COORDINATES REFER TO THE PRIMITIVE CELL

 *******************************************************************************

 LATTICE PARAMETERS  (ANGSTROMS AND DEGREES) - PRIMITIVE CELL
       A          B          C        ALPHA      BETA     GAMMA        VOLUME
    2.51000    2.51000  500.00000    90.00000  90.00000 120.00000      5.456047

 COORDINATES OF THE EQUIVALENT ATOMS 
 (X AND Y IN FRACTIONARY UNITS, Z IN ANGSTROMS)

 N. ATOM EQUIV AT. N.          X                  Y                  Z

   1   1   1    5 B    -3.33333333330E-01  3.33333333330E-01  0.00000000000E+00

   2   2   1    7 N     3.33333333330E-01 -3.33333333330E-01  0.00000000000E+00

 NUMBER OF SYMMETRY OPERATORS         :   12
 *******************************************************************************
 * GEOMETRY EDITING - INPUT COORDINATES ARE GIVEN IN ANGSTROM         
 *******************************************************************************

 GEOMETRY NOW FULLY CONSISTENT WITH THE GROUP
 *******************************************************************************
 *                                                                             *
 *                 CONSTRUCTION OF A NANOTUBE FROM A SLAB                      *
 *                                                                             *
 * Y. Noel, P. D'Arco, R. Demichelis, C.M. Zicovich-Wilson, R. Dovesi          *
 * On the use of symmetry in the ab initio quantum mechanical simulation of    *
 * nanotubes and related materials                                             *
 * J. Comput. Chem. 31, 855-862 (2010)                                         *
 *                                                                             *
 *******************************************************************************


 GCALCO - MAX INDICES DIRECT LATTICE VECTOR    83    83     0
 NO.OF VECTORS CREATED 6999 STARS  503 RMAX   208.53959 BOHR

 GEOMETRY FOR WAVE FUNCTION - DIMENSIONALITY OF THE SYSTEM    2
 (NON PERIODIC DIRECTION: LATTICE PARAMETER FORMALLY SET TO 500)
 *******************************************************************************
 LATTICE PARAMETERS (ANGSTROMS AND DEGREES) - BOHR = 0.5291772083 ANGSTROM
 PRIMITIVE CELL
         A              B              C           ALPHA      BETA       GAMMA 
     2.51000000     2.51000000   500.00000000    90.000000  90.000000 120.000000
 *******************************************************************************
 ATOMS IN THE ASYMMETRIC UNIT    2 - ATOMS IN THE UNIT CELL:    2
     ATOM                 X/A                 Y/B             Z(ANGSTROM)   R(ANGS)
 *******************************************************************************
      1 T   5 B    -0.33333333333E+00  0.33333333333E+00  0.00000000000E+00   0.333
      2 T   7 N     0.33333333333E+00 -0.33333333333E+00  0.00000000000E+00   0.333

 T = ATOM BELONGING TO THE ASYMMETRIC UNIT

 ****   12 SYMMOPS - TRANSLATORS IN FRACTIONAL UNITS
 **** MATRICES AND TRANSLATORS IN THE CRYSTALLOGRAPHIC REFERENCE FRAME
   V INV                    ROTATION MATRICES                   TRANSLATORS
   1   1  1.00  0.00  0.00  0.00  1.00  0.00  0.00  0.00  1.00  0.00  0.00  0.00
   2   3  0.00 -1.00  0.00  1.00 -1.00  0.00  0.00  0.00  1.00  0.00  0.00  0.00
   3   2 -1.00  1.00  0.00 -1.00  0.00  0.00  0.00  0.00  1.00  0.00  0.00  0.00
   4   4  0.00 -1.00  0.00 -1.00  0.00  0.00  0.00  0.00 -1.00  0.00  0.00  0.00
   5   5  1.00  0.00  0.00  1.00 -1.00  0.00  0.00  0.00 -1.00  0.00  0.00  0.00
   6   6 -1.00  1.00  0.00 -0.00  1.00  0.00  0.00  0.00 -1.00  0.00  0.00  0.00
   7   7 -1.00  1.00  0.00 -0.00  1.00  0.00  0.00  0.00  1.00  0.00  0.00  0.00
   8   8  1.00  0.00  0.00  1.00 -1.00  0.00  0.00  0.00  1.00  0.00  0.00  0.00
   9   9  0.00 -1.00  0.00 -1.00  0.00  0.00  0.00  0.00  1.00  0.00  0.00  0.00
  10  10  1.00  0.00  0.00  0.00  1.00  0.00  0.00  0.00 -1.00  0.00  0.00  0.00
  11  12 -1.00  1.00  0.00 -1.00  0.00  0.00  0.00  0.00 -1.00  0.00  0.00  0.00
  12  11  0.00 -1.00  0.00  1.00 -1.00  0.00  0.00  0.00 -1.00  0.00  0.00  0.00

 DIRECT LATTICE VECTORS CARTESIAN COMPONENTS (ANGSTROM)
          X                    Y                    Z
   0.217372376350E+01  -0.125500000000E+01   0.000000000000E+00
   0.000000000000E+00   0.251000000000E+01   0.000000000000E+00
   0.000000000000E+00   0.000000000000E+00   0.500000000000E+03


 CARTESIAN COORDINATES - PRIMITIVE CELL
 *******************************************************************************
 *      ATOM          X(ANGSTROM)         Y(ANGSTROM)         Z(ANGSTROM)
 *******************************************************************************
    1     5 B    -7.245745878330E-01 -1.255000000000E+00  0.000000000000E+00
    2     7 N    -1.449149175666E+00  0.000000000000E+00  0.000000000000E+00

 *******************************************************************************
 LOCAL ATOMIC FUNCTIONS BASIS SET
 *******************************************************************************
   ATOM   X(AU)   Y(AU)   Z(AU)  N. TYPE  EXPONENT  S COEF   P COEF   D/F/G COEF
 *******************************************************************************
   1 B   -1.369  -2.372   0.000
                                  1 S  
                                         2.082E+03 1.850E-03 0.000E+00 0.000E+00
                                         3.123E+02 1.413E-02 0.000E+00 0.000E+00
                                         7.089E+01 6.927E-02 0.000E+00 0.000E+00
                                         1.985E+01 2.324E-01 0.000E+00 0.000E+00
                                         6.292E+00 4.702E-01 0.000E+00 0.000E+00
                                         2.129E+00 3.603E-01 0.000E+00 0.000E+00
                           2-     5 SP 
                                         2.282E+00-3.687E-01 2.312E-01 0.000E+00
                                         4.652E-01 1.199E+00 8.668E-01 0.000E+00
                           6-     9 SP 
                                         1.243E-01 1.000E+00 1.000E+00 0.000E+00
   2 N   -2.738   0.000   0.000
                                 10 S  
                                         4.150E+03 1.845E-03 0.000E+00 0.000E+00
                                         6.201E+02 1.416E-02 0.000E+00 0.000E+00
                                         1.417E+02 6.863E-02 0.000E+00 0.000E+00
                                         4.034E+01 2.286E-01 0.000E+00 0.000E+00
                                         1.303E+01 4.662E-01 0.000E+00 0.000E+00
                                         4.470E+00 3.657E-01 0.000E+00 0.000E+00
                          11-    14 SP 
                                         5.425E+00-4.133E-01 2.380E-01 0.000E+00
                                         1.149E+00 1.224E+00 8.590E-01 0.000E+00
                          15-    18 SP 
                                         2.832E-01 1.000E+00 1.000E+00 0.000E+00
 INFORMATION **** SET_MPP **** PCRYSTAL CALCULATION
 INFORMATION **** READM2 **** NEW DEFAULT: FOCK/KS MATRIX MIXING SET TO 30 %
 INFORMATION **** READM2 **** NEW DEFAULT: FULL DIRECT SCF MODE
 INFORMATION **** READM2 **** NEW DEFAULT: COULOMB BIPOLAR BUFFER SET TO 32 Mb
 INFORMATION **** READM2 **** NEW DEFAULT: EXCHANGE BIPOLAR BUFFER SET TO 32 Mb

 *******************************************************************************
 NEW DEFAULT: DFT INTEGRATION GRID INCREASED TO XLGRID
 NEW DEFAULT: DIIS ACCELERATOR ACTIVE
 USE KEYWORD NODIIS TO TURN IT OFF
 *******************************************************************************

 INFORMATION **** TOLINTEG **** COULOMB AND EXCHANGE SERIES TOLERANCES MODIFIED
 INFORMATION **** TOLDEE **** SCF TOL ON TOTAL ENERGY SET TO           6
 *******************************************************************************
 N. OF ATOMS PER CELL         2  COULOMB OVERLAP TOL         (T1) 10**   -7
 NUMBER OF SHELLS             6  COULOMB PENETRATION TOL     (T2) 10**   -7
 NUMBER OF AO                18  EXCHANGE OVERLAP TOL        (T3) 10**   20
 N. OF ELECTRONS PER CELL    12  EXCHANGE PSEUDO OVP (F(G))  (T4) 10**   20
 CORE ELECTRONS PER CELL      4  EXCHANGE PSEUDO OVP (P(G))  (T5) 10**   20
 N. OF SYMMETRY OPERATORS    12  POLE ORDER IN MONO ZONE                  4
 *******************************************************************************
 TYPE OF CALCULATION :  RESTRICTED CLOSED SHELL
 KOHN-SHAM HAMILTONIAN

 (EXCHANGE)[CORRELATION] FUNCTIONAL:(PERDEW-BURKE-ERNZERHOF)[PERDEW-BURKE-ERNZERHOF]


 CAPPA:IS1  4;IS2  4;IS3  1; K PTS MONK NET   4; SYMMOPS:K SPACE  24;G SPACE  12

 *******************************************************************************
 MAX NUMBER OF SCF CYCLES      50  CONVERGENCE ON DELTAP        10**-16
 WEIGHT OF F(I) IN F(I+1)      30% CONVERGENCE ON ENERGY        10**- 6
 SHRINK. FACT.(MONKH.)    4  4  1  NUMBER OF K POINTS IN THE IBZ      4
 SHRINKING FACTOR(GILAT NET)    4  NUMBER OF K POINTS(GILAT NET)      4
 *******************************************************************************
 *** K POINTS COORDINATES (OBLIQUE COORDINATES IN UNITS OF IS =  4)
   1-R(  0  0  0)   2-C(  1  0  0)   3-R(  2  0  0)   4-C(  1  1  0)

 DIRECT LATTICE VECTORS COMPON. (A.U.)     RECIP. LATTICE VECTORS COMPON. (A.U.) 
        X            Y            Z              X            Y            Z
    4.1077426   -2.3716063    0.0000000      1.5295957    0.0000000    0.0000000
    0.0000000    4.7432126    0.0000000      0.7647978    1.3246687    0.0000000
    0.0000000    0.0000000  944.8630670      0.0000000    0.0000000    0.0066498

 DISK SPACE FOR EIGENVECTORS (FTN 10)        1944 REALS

 SYMMETRY ADAPTION OF THE BLOCH FUNCTIONS ENABLED
 TTTTTTTTTTTTTTTTTTTTTTTTTTTTTT gordsh1     TELAPSE        1.19 TCPU        0.16

 MATRIX SIZE: P(G)    5328, F(G)    2817, P(G) IRR     819, F(G) IRR     819
 MAX G-VECTOR INDEX FOR 1- AND 2-ELECTRON INTEGRALS  37

 TTTTTTTTTTTTTTTTTTTTTTTTTTTTTT INPUT       TELAPSE        1.52 TCPU        0.49

 NEIGHBORS OF THE NON-EQUIVALENT ATOMS

 N = NUMBER OF NEIGHBORS AT DISTANCE R
    ATOM  N     R/ANG      R/AU   NEIGHBORS (ATOM LABELS AND CELL INDICES)
   1 B    3     1.4491     2.7385    2 N    0 0 0    2 N    1 0 0    2 N    0-1 0
   1 B    6     2.5100     4.7432    1 B   -1-1 0    1 B    1 1 0    1 B   -1 0 0
                                     1 B    1 0 0    1 B    0-1 0    1 B    0 1 0
   1 B    3     2.8983     5.4770    2 N    1 1 0    2 N   -1-1 0    2 N    1-1 0
   1 B    6     3.8341     7.2454    2 N   -1 0 0    2 N    0 1 0    2 N    2 1 0
                                     2 N   -1-2 0    2 N    2 0 0    2 N    0-2 0
   1 B    6     4.3474     8.2155    1 B   -2-1 0    1 B    2 1 0    1 B   -1-2 0
                                     1 B    1 2 0    1 B   -1 1 0    1 B    1-1 0
   1 B    6     5.0200     9.4864    1 B   -2-2 0    1 B    2 2 0    1 B   -2 0 0
                                     1 B    2 0 0    1 B    0-2 0    1 B    0 2 0

   2 N    3     1.4491     2.7385    1 B    0 0 0    1 B   -1 0 0    1 B    0 1 0
   2 N    6     2.5100     4.7432    2 N   -1-1 0    2 N    1 1 0    2 N   -1 0 0
                                     2 N    1 0 0    2 N    0-1 0    2 N    0 1 0
   2 N    3     2.8983     5.4770    1 B   -1-1 0    1 B    1 1 0    1 B   -1 1 0
   2 N    6     3.8341     7.2454    1 B    1 0 0    1 B    0-1 0    1 B   -2-1 0
                                     1 B    1 2 0    1 B   -2 0 0    1 B    0 2 0
   2 N    6     4.3474     8.2155    2 N   -2-1 0    2 N    2 1 0    2 N   -1-2 0
                                     2 N    1 2 0    2 N   -1 1 0    2 N    1-1 0
   2 N    6     5.0200     9.4864    2 N   -2-2 0    2 N    2 2 0    2 N   -2 0 0
                                     2 N    2 0 0    2 N    0-2 0    2 N    0 2 0


 THERE ARE NO SYMMETRY ALLOWED DIRECTIONS
 TTTTTTTTTTTTTTTTTTTTTTTTTTTTTT SYMM        TELAPSE        1.53 TCPU        0.50
 TTTTTTTTTTTTTTTTTTTTTTTTTTTTTT INT_SCREEN  TELAPSE        1.53 TCPU        0.50
 *******************************************************************************
 *                                                                             *
 *                 CONSTRUCTION OF A NANOTUBE FROM A SLAB                      *
 *                                                                             *
 * Y. Noel, P. D'Arco, R. Demichelis, C.M. Zicovich-Wilson, R. Dovesi          *
 * On the use of symmetry in the ab initio quantum mechanical simulation of    *
 * nanotubes and related materials                                             *
 * J. Comput. Chem. 31, 855-862 (2010)                                         *
 *                                                                             *
 *******************************************************************************

 ********** NANOTUBE **********
 INPUT ROLL UP DIRECTION    7   0
 *******************************

 DISTINCTIVE NANOTUBE VECTORS EXPRESSED IN THE SLAB UNIT CELL BASIS A AND B
                                                   A   B
       ROLL UP DIRECTION, R                        7   0
       HELICAL DIRECTION, H                        0   1
       CYLINDER AXIS, L                            1   2

 LENGTHS IN ANGSTROM
       CYLINDER RADIUS                             2.796
       PERIOD ALONG THE CYLINDER AXIS, |L|         4.347
       THICKNESS OF THE SLAB                       0.000

 NUMBER OF ATOMS                                      28
 CHIRAL ANGLE                                      0.000 DEG

 NANOTUBE SYMMETRY
       NUMBER OF SYMMETRY OPERATORS                   28
       THE HELICAL OPERATOR:
         ORDER                                        14
         ANGLE                                 (   3/ 14)x2PI RAD => 77.143 DEG
         TRANSLATION                               1/  2 OF THE CYLINDER PERIOD
                                                   4.1077 ANGSTROM

 *******************************************************************************
 LATTICE PARAMETERS (ANGSTROMS AND DEGREES) - BOHR = 0.5291772083 ANGSTROM
 PRIMITIVE CELL
         A              B              C           ALPHA      BETA       GAMMA 
     4.34744753   500.00000000   500.00000000    90.000000  90.000000  90.000000
 *******************************************************************************
 ATOMS IN THE ASYMMETRIC UNIT    2 - ATOMS IN THE UNIT CELL:   28
     ATOM                 X/A             Y(ANGSTROM)         Z(ANGSTROM)   R(ANGS)
 *******************************************************************************
      1 T   5 B    -0.33333333333E+00  0.27963523501E+01 -0.11324543490E-15   2.796
      2 F   5 B     0.16666666667E+00  0.62224693662E+00  0.27262419584E+01   2.796
      3 F   5 B     0.16666666667E+00  0.62224693662E+00 -0.27262419584E+01   2.796
      4 F   5 B    -0.33333333333E+00 -0.25194264111E+01  0.12132918136E+01   2.796
      5 F   5 B    -0.33333333333E+00 -0.25194264111E+01 -0.12132918136E+01   2.796
      6 F   5 B     0.16666666667E+00 -0.17434971727E+01 -0.21862763034E+01   2.796
      7 F   5 B     0.16666666667E+00 -0.17434971727E+01  0.21862763034E+01   2.796
      8 F   5 B    -0.33333333333E+00  0.17434971727E+01 -0.21862763034E+01   2.796
      9 F   5 B    -0.33333333333E+00  0.17434971727E+01  0.21862763034E+01   2.796
     10 F   5 B     0.16666666667E+00  0.25194264111E+01  0.12132918136E+01   2.796
     11 F   5 B     0.16666666667E+00  0.25194264111E+01 -0.12132918136E+01   2.796
     12 F   5 B    -0.33333333333E+00 -0.62224693662E+00  0.27262419584E+01   2.796
     13 F   5 B    -0.33333333333E+00 -0.62224693662E+00 -0.27262419584E+01   2.796
     14 F   5 B     0.16666666667E+00 -0.27963523501E+01  0.11406086214E-14   2.796
     15 T   7 N    -0.16666666667E+00  0.25194264111E+01 -0.12132918136E+01   2.796
     16 F   7 N    -0.16666666667E+00  0.25194264111E+01  0.12132918136E+01   2.796
     17 F   7 N     0.33333333333E+00  0.17434971727E+01  0.21862763034E+01   2.796
     18 F   7 N     0.33333333333E+00  0.17434971727E+01 -0.21862763034E+01   2.796
     19 F   7 N    -0.16666666667E+00 -0.17434971727E+01  0.21862763034E+01   2.796
     20 F   7 N    -0.16666666667E+00 -0.17434971727E+01 -0.21862763034E+01   2.796
     21 F   7 N     0.33333333333E+00 -0.25194264111E+01 -0.12132918136E+01   2.796
     22 F   7 N     0.33333333333E+00 -0.25194264111E+01  0.12132918136E+01   2.796
     23 F   7 N    -0.16666666667E+00  0.62224693662E+00 -0.27262419584E+01   2.796
     24 F   7 N    -0.16666666667E+00  0.62224693662E+00  0.27262419584E+01   2.796
     25 F   7 N     0.33333333333E+00  0.27963523501E+01 -0.94000755322E-15   2.796
     26 F   7 N     0.33333333333E+00 -0.62224693662E+00  0.27262419584E+01   2.796
     27 F   7 N     0.33333333333E+00 -0.62224693662E+00 -0.27262419584E+01   2.796
     28 F   7 N    -0.16666666667E+00 -0.27963523501E+01  0.21150169947E-14   2.796

 T = ATOM BELONGING TO THE ASYMMETRIC UNIT

 *******************************************************************************
 LOCAL ATOMIC FUNCTIONS BASIS SET
 *******************************************************************************
   ATOM   X(AU)   Y(AU)   Z(AU)  N. TYPE  EXPONENT  S COEF   P COEF   D/F/G COEF
 *******************************************************************************
   1 B   -2.738   5.284  -0.000
                                  1 S  
                                         2.082E+03 1.850E-03 0.000E+00 0.000E+00
                                         3.123E+02 1.413E-02 0.000E+00 0.000E+00
                                         7.089E+01 6.927E-02 0.000E+00 0.000E+00
                                         1.985E+01 2.324E-01 0.000E+00 0.000E+00
                                         6.292E+00 4.702E-01 0.000E+00 0.000E+00
                                         2.129E+00 3.603E-01 0.000E+00 0.000E+00
                           2-     5 SP 
                                         2.282E+00-3.687E-01 2.312E-01 0.000E+00
                                         4.652E-01 1.199E+00 8.668E-01 0.000E+00
                           6-     9 SP 
                                         1.243E-01 1.000E+00 1.000E+00 0.000E+00
   2 B    1.369   1.176   5.152
   3 B    1.369   1.176  -5.152
   4 B   -2.738  -4.761   2.293
   5 B   -2.738  -4.761  -2.293
   6 B    1.369  -3.295  -4.131
   7 B    1.369  -3.295   4.131
   8 B   -2.738   3.295  -4.131
   9 B   -2.738   3.295   4.131
  10 B    1.369   4.761   2.293
  11 B    1.369   4.761  -2.293
  12 B   -2.738  -1.176   5.152
  13 B   -2.738  -1.176  -5.152
  14 B    1.369  -5.284   0.000
  15 N   -1.369   4.761  -2.293
                                127 S  
                                         4.150E+03 1.845E-03 0.000E+00 0.000E+00
                                         6.201E+02 1.416E-02 0.000E+00 0.000E+00
                                         1.417E+02 6.863E-02 0.000E+00 0.000E+00
                                         4.034E+01 2.286E-01 0.000E+00 0.000E+00
                                         1.303E+01 4.662E-01 0.000E+00 0.000E+00
                                         4.470E+00 3.657E-01 0.000E+00 0.000E+00
                         128-   131 SP 
                                         5.425E+00-4.133E-01 2.380E-01 0.000E+00
                                         1.149E+00 1.224E+00 8.590E-01 0.000E+00
                         132-   135 SP 
                                         2.832E-01 1.000E+00 1.000E+00 0.000E+00
  16 N   -1.369   4.761   2.293
  17 N    2.738   3.295   4.131
  18 N    2.738   3.295  -4.131
  19 N   -1.369  -3.295   4.131
  20 N   -1.369  -3.295  -4.131
  21 N    2.738  -4.761  -2.293
  22 N    2.738  -4.761   2.293
  23 N   -1.369   1.176  -5.152
  24 N   -1.369   1.176   5.152
  25 N    2.738   5.284  -0.000
  26 N    2.738  -1.176   5.152
  27 N    2.738  -1.176  -5.152
  28 N   -1.369  -5.284   0.000

 GCALCO - MAX INDICES DIRECT LATTICE VECTOR 13998     0     0
 NO.OF VECTORS CREATED 6999 STARS 3500 RMAX 28745.98274 BOHR

 CAPPA:IS1  4;IS2  1;IS3  1; K PTS MONK NET   3; SYMMOPS:K SPACE  56;G SPACE  28

 TTTTTTTTTTTTTTTTTTTTTTTTTTTTTT gordsh1     TELAPSE        1.53 TCPU        0.50

 MATRIX SIZE: P(G)   93968, F(G)   47278, P(G) IRR    2348, F(G) IRR    2348
 MAX G-VECTOR INDEX FOR 1- AND 2-ELECTRON INTEGRALS   5

 TTTTTTTTTTTTTTTTTTTTTTTTTTTTTT INPUT       TELAPSE        1.53 TCPU        0.50

 NEIGHBORS OF THE NON-EQUIVALENT ATOMS

 N = NUMBER OF NEIGHBORS AT DISTANCE R
    ATOM  N     R/ANG      R/AU   NEIGHBORS (ATOM LABELS AND CELL INDICES)
   1 B    2     1.4401     2.7213   15 N    0 0 0   16 N    0 0 0
   1 B    1     1.4491     2.7385   25 N   -1 0 0
   1 B    2     2.4266     4.5856    8 B    0 0 0    9 B    0 0 0
   1 B    4     2.5048     4.7333   10 B    0 0 0   10 B   -1 0 0   11 B    0 0 0
                                    11 B   -1 0 0
   1 B    2     2.8264     5.3411   17 N   -1 0 0   18 N   -1 0 0
   1 B    1     2.8983     5.4770   25 N    0 0 0

  15 N    2     1.4401     2.7213    1 B    0 0 0    8 B    0 0 0
  15 N    1     1.4491     2.7385   11 B    0 0 0
  15 N    2     2.4266     4.5856   16 N    0 0 0   23 N    0 0 0
  15 N    4     2.5048     4.7333   18 N    0 0 0   18 N   -1 0 0   25 N    0 0 0
                                    25 N   -1 0 0
  15 N    2     2.8264     5.3411    3 B    0 0 0   10 B    0 0 0
  15 N    1     2.8983     5.4770   11 B   -1 0 0


 SYMMETRY ALLOWED ELASTIC DISTORTION 1
  1.0000000

 SYMMETRY ALLOWED INTERNAL DEGREE(S) OF FREEDOM:   3
 TTTTTTTTTTTTTTTTTTTTTTTTTTTTTT SYMM        TELAPSE        1.56 TCPU        0.53

 ***** NEW REFERENCE GEOMETRY *****
 TTTTTTTTTTTTTTTTTTTTTTTTTTTTTT INT_SCREEN  TELAPSE        1.56 TCPU        0.53
 INFORMATION **** NEW DEFAULT **** FINALRUN 4 FOR GEOMETRY OPTIMIZATIONS
 INFORMATION **** NEW DEFAULT **** OPTGEOM OPTIMIZES BOTH ATOMIC COORDINATES AND CELL PARAMETERS
 INFORMATION **** NEW DEFAULT **** TOL. ON ATOMIC DISP TO REDEFINE REF. GEOMETRY: 0.8 Angs
 INFORMATION **** NEW DEFAULT **** N POINTS TO REDEFINE REF. GEOMETRY: N OF OPT DEGS OF FREEDOM
 INFORMATION **** NEW DEFAULT **** TOL. ON ENERGY TO REDEFINE REF. GEOMETRY: 10**-3*(5*N. ATOMS)

 IMPORTANT INFORMATION:
 THE COORDINATE SYSTEM ADOPTED IN THE OPTIMIZATION IS NOT IN
 GENERAL HOMOGENEOUS UNITS. FOR THIS REASON THE GRADIENT AND 
 HESSIAN MATRIX IN TERMS OF THIS SYSTEM ARE GIVEN WITHOUT
 UNITS. FOR MORE DETAILS SEE THE MANUAL.

 *******************************************************************************
 COMBINED CELL/ATOM OPTIMIZATION CONTROL

 INITIAL TRUST RADIUS         0.50000 MAXIMUM TRUST RADIUS               4.00000
 MAXIMUM GRADIENT COMPONENT   0.00045 MAXIMUM DISPLACEMENT COMPONENT     0.00180
 R.M.S. OF GRADIENT COMPONENT 0.00030 R.M.S. OF DISPLACEMENT COMPONENTS  0.00120
 THRESHOLD ON ENERGY CHANGE 0.100E-06 EXTRAPOLATING POLYNOMIAL ORDER           2
 MAXIMUM ALLOWED NUMBER OF STEPS   -1 SORTING OF ENERGY POINTS:               NO
 ANALYTICAL  GRADIENT                 HESSIAN UPDATING                      BFGS
 STEP SIZE NUMERICAL GRADIENT 0.00100
 INITIAL HESSIAN MATRIX: SCHLEGEL MODEL 2
 *******************************************************************************


 *******************************************************************************
 *                             OPTIMIZATION STARTS                             *
 *******************************************************************************
 RECLASIFICATION OF INDICES FOR INTEGRAL CALC ACCORDING TO DIFFERENT CRITERIA:
           FIXDELTE                  FIXDELTX              FIXDELTN
          0.10000000               0.80000000                 10
 DEFAULT MAX NUM OF POINTS  100
 *******************************************************************************

 *******************************************************************************
 COORDINATE AND CELL OPTIMIZATION - POINT    1

 DFT PARAMETERS

     ATOM       ELECTRONS   NET CHARGE   R(ANGSTROM)
   1   5  B       5.0000      0.0000     0.89000000
  15   7  N       7.0000      0.0000     0.74000000

 SIZE OF GRID=      48076
 TTTTTTTTTTTTTTTTTTTTTTTTTTTTTT MAKE_GRID2  TELAPSE        2.62 TCPU        1.58
 BECKE WEIGHT FUNCTION
 RADSAFE =     2.00
 TOLERANCES - DENSITY:10**- 6; POTENTIAL:10**- 9; GRID WGT:10**-14

 RADIAL INTEGRATION  - INTERVALS (POINTS,UPPER LIMIT):            1( 75,  4.0*R)

 ANGULAR INTEGRATION - INTERVALS (ACCURACY LEVEL [N. POINTS] UPPER LIMIT):
  1(  4[  86]   0.2)  2(  8[ 194]   0.5)  3( 12[ 350]   0.9)  4( 16[ 974]   3.5)
  5( 12[ 350]9999.0)
 TTTTTTTTTTTTTTTTTTTTTTTTTTTTTT INT_CALC    TELAPSE        2.63 TCPU        1.59

 *******************************************************************************
 MWall BN Nanotubes - base moche Debug                                           
 CRYSTAL - SCF - TYPE OF CALCULATION :  RESTRICTED CLOSED SHELL
 *******************************************************************************

 CAPPA:IS1  4;IS2  1;IS3  1; K PTS MONK NET   3; SYMMOPS:K SPACE  56;G SPACE  28

 TTTTTTTTTTTTTTTTTTTTTTTTTTTTTT SDIK        TELAPSE        2.68 TCPU        1.64

 AAAAAAAAAAAAAAAAAAAAAAAAAAAAAAAAAAAAAAAAAAAAAAAAAAAAAAAAAAAAAAAAAAAAAAAAAAAAAAA
         ATOMIC WAVEFUNCTION(S)


 NUCLEAR CHARGE  5.0  SYMMETRY SPECIES            S    P
 N. ELECTRONS    5.0  NUMBER OF PRIMITIVE GTOS    9    3
                      NUMBER OF CONTRACTED GTOS   3    2
                      NUMBER OF CLOSED SHELLS     2    0
                      OPEN SHELL OCCUPATION       0    1

  ZNUC SCFIT  TOTAL HF ENERGY   KINETIC ENERGY   VIRIAL THEOREM ACCURACY
   5.0  21   -2.451672208E+01  2.451394912E+01 -2.000113118E+00  5.1E-07

 NUCLEAR CHARGE  7.0  SYMMETRY SPECIES            S    P
 N. ELECTRONS    7.0  NUMBER OF PRIMITIVE GTOS    9    3
                      NUMBER OF CONTRACTED GTOS   3    2
                      NUMBER OF CLOSED SHELLS     2    0
                      OPEN SHELL OCCUPATION       0    3

  ZNUC SCFIT  TOTAL HF ENERGY   KINETIC ENERGY   VIRIAL THEOREM ACCURACY
   7.0  18   -5.434075198E+01  5.432983763E+01 -2.000200891E+00  5.0E-06

 AAAAAAAAAAAAAAAAAAAAAAAAAAAAAAAAAAAAAAAAAAAAAAAAAAAAAAAAAAAAAAAAAAAAAAAAAAAAAAA

 CHARGE NORMALIZATION FACTOR   1.00000000
 TOTAL ATOMIC CHARGES:
   5.0000000   5.0000000   5.0000000   5.0000000   5.0000000   5.0000000
   5.0000000   5.0000000   5.0000000   5.0000000   5.0000000   5.0000000
   5.0000000   5.0000000   7.0000000   7.0000000   7.0000000   7.0000000
   7.0000000   7.0000000   7.0000000   7.0000000   7.0000000   7.0000000
   7.0000000   7.0000000   7.0000000   7.0000000
 TTTTTTTTTTTTTTTTTTTTTTTTTTTTTT MOQGAD      TELAPSE        2.69 TCPU        1.65
 TTTTTTTTTTTTTTTTTTTTTTTTTTTTTT SHELLXN     TELAPSE        2.84 TCPU        1.80
 TTTTTTTTTTTTTTTTTTTTTTTTTTTTTT MONMO3      TELAPSE        2.85 TCPU        1.82
 NUMERICALLY INTEGRATED DENSITY    167.9984490248
 TTTTTTTTTTTTTTTTTTTTTTTTTTTTTT NUMDFT      TELAPSE        3.01 TCPU        1.98
 CYC   0 ETOT(AU) -1.121367371429E+03 DETOT -1.12E+03 tst  0.00E+00 PX  1.00E+00
 TTTTTTTTTTTTTTTTTTTTTTTTTTTTTT DIIS        TELAPSE        3.02 TCPU        1.99
 TTTTTTTTTTTTTTTTTTTTTTTTTTTTTT FDIK        TELAPSE        3.02 TCPU        1.99
 INSULATING STATE
 TOP OF VALENCE BANDS -    BAND     84; K    1; EIG -3.3851216E-01 AU
 BOTTOM OF VIRTUAL BANDS - BAND     85; K    1; EIG -1.5475431E-01 AU
 DIRECT ENERGY BAND GAP:   5.0003 eV
 TTTTTTTTTTTTTTTTTTTTTTTTTTTTTT PDIG        TELAPSE        3.03 TCPU        2.00
 CHARGE NORMALIZATION FACTOR   1.00000000
 TOTAL ATOMIC CHARGES:
   3.7369881   3.7369881   3.7369881   3.7369881   3.7369881   3.7369881
   3.7369881   3.7369881   3.7369881   3.7369881   3.7369881   3.7369881
   3.7369881   3.7369881   8.2630119   8.2630119   8.2630119   8.2630119
   8.2630119   8.2630119   8.2630119   8.2630119   8.2630119   8.2630119
   8.2630119   8.2630119   8.2630119   8.2630119
 TTTTTTTTTTTTTTTTTTTTTTTTTTTTTT MOQGAD      TELAPSE        3.04 TCPU        2.00
 TTTTTTTTTTTTTTTTTTTTTTTTTTTTTT SHELLXN     TELAPSE        3.21 TCPU        2.17
 TTTTTTTTTTTTTTTTTTTTTTTTTTTTTT MONMO3      TELAPSE        3.22 TCPU        2.19
 NUMERICALLY INTEGRATED DENSITY    167.9996498816
 TTTTTTTTTTTTTTTTTTTTTTTTTTTTTT NUMDFT      TELAPSE        3.62 TCPU        2.59
 CYC   1 ETOT(AU) -1.112970339786E+03 DETOT  8.40E+00 tst  0.00E+00 PX  1.00E+00
 TTTTTTTTTTTTTTTTTTTTTTTTTTTTTT DIIS        TELAPSE        3.64 TCPU        2.61
 DIIS TEST: 0.49040E+01 AT SCF   CYCLE   1 - MIX   30 %
 TTTTTTTTTTTTTTTTTTTTTTTTTTTTTT FDIK        TELAPSE        3.65 TCPU        2.61
 INSULATING STATE
 TOP OF VALENCE BANDS -    BAND     84; K    1; EIG -1.4281494E-01 AU
 BOTTOM OF VIRTUAL BANDS - BAND     85; K    1; EIG -6.3170986E-02 AU
 DIRECT ENERGY BAND GAP:   2.1672 eV
 TTTTTTTTTTTTTTTTTTTTTTTTTTTTTT PDIG        TELAPSE        3.65 TCPU        2.62
 CHARGE NORMALIZATION FACTOR   1.00000000
 TOTAL ATOMIC CHARGES:
   4.5795595   4.5795595   4.5795595   4.5795595   4.5795595   4.5795595
   4.5795595   4.5795595   4.5795595   4.5795595   4.5795595   4.5795595
   4.5795595   4.5795595   7.4204405   7.4204405   7.4204405   7.4204405
   7.4204405   7.4204405   7.4204405   7.4204405   7.4204405   7.4204405
   7.4204405   7.4204405   7.4204405   7.4204405
 TTTTTTTTTTTTTTTTTTTTTTTTTTTTTT MOQGAD      TELAPSE        3.66 TCPU        2.63
 TTTTTTTTTTTTTTTTTTTTTTTTTTTTTT SHELLXN     TELAPSE        3.83 TCPU        2.80
 TTTTTTTTTTTTTTTTTTTTTTTTTTTTTT MONMO3      TELAPSE        3.85 TCPU        2.81
 NUMERICALLY INTEGRATED DENSITY    167.9987902155
 TTTTTTTTTTTTTTTTTTTTTTTTTTTTTT NUMDFT      TELAPSE        4.25 TCPU        3.21
 CYC   2 ETOT(AU) -1.113132387214E+03 DETOT -1.62E-01 tst  1.12E-02 PX  1.65E-01
 TTTTTTTTTTTTTTTTTTTTTTTTTTTTTT DIIS        TELAPSE        4.25 TCPU        3.22
 DIIS TEST: 0.33991E+01 AT SCF   CYCLE   2 - DIIS ACTIVE - HISTORY:     2 CYCLES
 TTTTTTTTTTTTTTTTTTTTTTTTTTTTTT FDIK        TELAPSE        4.26 TCPU        3.22
 INSULATING STATE
 TOP OF VALENCE BANDS -    BAND     84; K    1; EIG -2.0789279E-01 AU
 BOTTOM OF VIRTUAL BANDS - BAND     85; K    1; EIG -7.5238549E-02 AU
 DIRECT ENERGY BAND GAP:   3.6097 eV
 TTTTTTTTTTTTTTTTTTTTTTTTTTTTTT PDIG        TELAPSE        4.26 TCPU        3.23
 CHARGE NORMALIZATION FACTOR   1.00000000
 TOTAL ATOMIC CHARGES:
   4.1442999   4.1442999   4.1442999   4.1442999   4.1442999   4.1442999
   4.1442999   4.1442999   4.1442999   4.1442999   4.1442999   4.1442999
   4.1442999   4.1442999   7.8557001   7.8557001   7.8557001   7.8557001
   7.8557001   7.8557001   7.8557001   7.8557001   7.8557001   7.8557001
   7.8557001   7.8557001   7.8557001   7.8557001
 TTTTTTTTTTTTTTTTTTTTTTTTTTTTTT MOQGAD      TELAPSE        4.27 TCPU        3.24
 TTTTTTTTTTTTTTTTTTTTTTTTTTTTTT SHELLXN     TELAPSE        4.44 TCPU        3.41
 TTTTTTTTTTTTTTTTTTTTTTTTTTTTTT MONMO3      TELAPSE        4.46 TCPU        3.42
 NUMERICALLY INTEGRATED DENSITY    167.9992167291
 TTTTTTTTTTTTTTTTTTTTTTTTTTTTTT NUMDFT      TELAPSE        4.86 TCPU        3.83
 CYC   3 ETOT(AU) -1.113580269931E+03 DETOT -4.48E-01 tst  2.79E-03 PX  6.99E-02
 TTTTTTTTTTTTTTTTTTTTTTTTTTTTTT DIIS        TELAPSE        4.87 TCPU        3.84
 DIIS TEST: 0.14410E-01 AT SCF   CYCLE   3 - DIIS ACTIVE - HISTORY:     3 CYCLES
 TTTTTTTTTTTTTTTTTTTTTTTTTTTTTT FDIK        TELAPSE        4.87 TCPU        3.84
 INSULATING STATE
 TOP OF VALENCE BANDS -    BAND     84; K    1; EIG -2.0482904E-01 AU
 BOTTOM OF VIRTUAL BANDS - BAND     85; K    1; EIG -7.7077572E-02 AU
 DIRECT ENERGY BAND GAP:   3.4763 eV
 TTTTTTTTTTTTTTTTTTTTTTTTTTTTTT PDIG        TELAPSE        4.88 TCPU        3.85
 CHARGE NORMALIZATION FACTOR   1.00000000
 TOTAL ATOMIC CHARGES:
   4.1686256   4.1686256   4.1686256   4.1686256   4.1686256   4.1686256
   4.1686256   4.1686256   4.1686256   4.1686256   4.1686256   4.1686256
   4.1686256   4.1686256   7.8313744   7.8313744   7.8313744   7.8313744
   7.8313744   7.8313744   7.8313744   7.8313744   7.8313744   7.8313744
   7.8313744   7.8313744   7.8313744   7.8313744
 TTTTTTTTTTTTTTTTTTTTTTTTTTTTTT MOQGAD      TELAPSE        4.89 TCPU        3.86
 TTTTTTTTTTTTTTTTTTTTTTTTTTTTTT SHELLXN     TELAPSE        5.06 TCPU        4.02
 TTTTTTTTTTTTTTTTTTTTTTTTTTTTTT MONMO3      TELAPSE        5.07 TCPU        4.04
 NUMERICALLY INTEGRATED DENSITY    167.9991998229
 TTTTTTTTTTTTTTTTTTTTTTTTTTTTTT NUMDFT      TELAPSE        5.47 TCPU        4.44
 CYC   4 ETOT(AU) -1.113583275512E+03 DETOT -3.01E-03 tst  3.12E-05 PX  7.93E-03
 TTTTTTTTTTTTTTTTTTTTTTTTTTTTTT DIIS        TELAPSE        5.48 TCPU        4.44
 DIIS TEST: 0.59459E-03 AT SCF   CYCLE   4 - DIIS ACTIVE - HISTORY:     4 CYCLES
 TTTTTTTTTTTTTTTTTTTTTTTTTTTTTT FDIK        TELAPSE        5.48 TCPU        4.45
 INSULATING STATE
 TOP OF VALENCE BANDS -    BAND     84; K    1; EIG -2.0725898E-01 AU
 BOTTOM OF VIRTUAL BANDS - BAND     85; K    1; EIG -7.9551032E-02 AU
 DIRECT ENERGY BAND GAP:   3.4751 eV
 TTTTTTTTTTTTTTTTTTTTTTTTTTTTTT PDIG        TELAPSE        5.49 TCPU        4.45
 CHARGE NORMALIZATION FACTOR   1.00000000
 TOTAL ATOMIC CHARGES:
   4.1710464   4.1710464   4.1710464   4.1710464   4.1710464   4.1710464
   4.1710464   4.1710464   4.1710464   4.1710464   4.1710464   4.1710464
   4.1710464   4.1710464   7.8289536   7.8289536   7.8289536   7.8289536
   7.8289536   7.8289536   7.8289536   7.8289536   7.8289536   7.8289536
   7.8289536   7.8289536   7.8289536   7.8289536
 TTTTTTTTTTTTTTTTTTTTTTTTTTTTTT MOQGAD      TELAPSE        5.49 TCPU        4.46
 TTTTTTTTTTTTTTTTTTTTTTTTTTTTTT SHELLXN     TELAPSE        5.66 TCPU        4.63
 TTTTTTTTTTTTTTTTTTTTTTTTTTTTTT MONMO3      TELAPSE        5.68 TCPU        4.64
 NUMERICALLY INTEGRATED DENSITY    167.9992070059
 TTTTTTTTTTTTTTTTTTTTTTTTTTTTTT NUMDFT      TELAPSE        6.09 TCPU        5.05
 CYC   5 ETOT(AU) -1.113583391820E+03 DETOT -1.16E-04 tst  1.80E-06 PX  2.31E-03
 TTTTTTTTTTTTTTTTTTTTTTTTTTTTTT DIIS        TELAPSE        6.09 TCPU        5.06
 DIIS TEST: 0.29178E-04 AT SCF   CYCLE   5 - DIIS ACTIVE - HISTORY:     5 CYCLES
 TTTTTTTTTTTTTTTTTTTTTTTTTTTTTT FDIK        TELAPSE        6.10 TCPU        5.06
 INSULATING STATE
 TOP OF VALENCE BANDS -    BAND     84; K    1; EIG -2.0648628E-01 AU
 BOTTOM OF VIRTUAL BANDS - BAND     85; K    1; EIG -7.8866677E-02 AU
 DIRECT ENERGY BAND GAP:   3.4727 eV
 TTTTTTTTTTTTTTTTTTTTTTTTTTTTTT PDIG        TELAPSE        6.10 TCPU        5.07
 CHARGE NORMALIZATION FACTOR   1.00000000
 TOTAL ATOMIC CHARGES:
   4.1714261   4.1714261   4.1714261   4.1714261   4.1714261   4.1714261
   4.1714261   4.1714261   4.1714261   4.1714261   4.1714261   4.1714261
   4.1714261   4.1714261   7.8285739   7.8285739   7.8285739   7.8285739
   7.8285739   7.8285739   7.8285739   7.8285739   7.8285739   7.8285739
   7.8285739   7.8285739   7.8285739   7.8285739
 TTTTTTTTTTTTTTTTTTTTTTTTTTTTTT MOQGAD      TELAPSE        6.11 TCPU        5.08
 TTTTTTTTTTTTTTTTTTTTTTTTTTTTTT SHELLXN     TELAPSE        6.28 TCPU        5.25
 TTTTTTTTTTTTTTTTTTTTTTTTTTTTTT MONMO3      TELAPSE        6.30 TCPU        5.26
 NUMERICALLY INTEGRATED DENSITY    167.9992043753
 TTTTTTTTTTTTTTTTTTTTTTTTTTTTTT NUMDFT      TELAPSE        6.68 TCPU        5.65
 CYC   6 ETOT(AU) -1.113583404287E+03 DETOT -1.25E-05 tst  7.19E-08 PX  3.89E-04
 TTTTTTTTTTTTTTTTTTTTTTTTTTTTTT DIIS        TELAPSE        6.69 TCPU        5.66
 DIIS TEST: 0.13420E-06 AT SCF   CYCLE   6 - DIIS ACTIVE - HISTORY:     6 CYCLES
 TTTTTTTTTTTTTTTTTTTTTTTTTTTTTT FDIK        TELAPSE        6.69 TCPU        5.66
 INSULATING STATE
 TOP OF VALENCE BANDS -    BAND     84; K    1; EIG -2.0651873E-01 AU
 BOTTOM OF VIRTUAL BANDS - BAND     85; K    1; EIG -7.8887977E-02 AU
 DIRECT ENERGY BAND GAP:   3.4730 eV
 TTTTTTTTTTTTTTTTTTTTTTTTTTTTTT PDIG        TELAPSE        6.70 TCPU        5.67
 CHARGE NORMALIZATION FACTOR   1.00000000
 TOTAL ATOMIC CHARGES:
   4.1713387   4.1713387   4.1713387   4.1713387   4.1713387   4.1713387
   4.1713387   4.1713387   4.1713387   4.1713387   4.1713387   4.1713387
   4.1713387   4.1713387   7.8286613   7.8286613   7.8286613   7.8286613
   7.8286613   7.8286613   7.8286613   7.8286613   7.8286613   7.8286613
   7.8286613   7.8286613   7.8286613   7.8286613
 TTTTTTTTTTTTTTTTTTTTTTTTTTTTTT MOQGAD      TELAPSE        6.71 TCPU        5.68
 TTTTTTTTTTTTTTTTTTTTTTTTTTTTTT SHELLXN     TELAPSE        6.88 TCPU        5.84
 TTTTTTTTTTTTTTTTTTTTTTTTTTTTTT MONMO3      TELAPSE        6.89 TCPU        5.86
 NUMERICALLY INTEGRATED DENSITY    167.9992044926
 TTTTTTTTTTTTTTTTTTTTTTTTTTTTTT NUMDFT      TELAPSE        7.29 TCPU        6.26
 CYC   7 ETOT(AU) -1.113583404237E+03 DETOT  5.05E-08 tst  1.05E-10 PX  1.60E-05
 TTTTTTTTTTTTTTTTTTTTTTTTTTTTTT DIIS        TELAPSE        7.30 TCPU        6.27
 DIIS TEST: 0.65945E-10 AT SCF   CYCLE   7 - DIIS ACTIVE - HISTORY:     7 CYCLES
 TTTTTTTTTTTTTTTTTTTTTTTTTTTTTT FDIK        TELAPSE        7.31 TCPU        6.27
 INSULATING STATE
 TOP OF VALENCE BANDS -    BAND     84; K    1; EIG -2.0651902E-01 AU
 BOTTOM OF VIRTUAL BANDS - BAND     85; K    1; EIG -7.8888246E-02 AU
 DIRECT ENERGY BAND GAP:   3.4730 eV
 TTTTTTTTTTTTTTTTTTTTTTTTTTTTTT PDIG        TELAPSE        7.31 TCPU        6.28
 CHARGE NORMALIZATION FACTOR   1.00000000
 TOTAL ATOMIC CHARGES:
   4.1713386   4.1713386   4.1713386   4.1713386   4.1713386   4.1713386
   4.1713386   4.1713386   4.1713386   4.1713386   4.1713386   4.1713386
   4.1713386   4.1713386   7.8286614   7.8286614   7.8286614   7.8286614
   7.8286614   7.8286614   7.8286614   7.8286614   7.8286614   7.8286614
   7.8286614   7.8286614   7.8286614   7.8286614
 TTTTTTTTTTTTTTTTTTTTTTTTTTTTTT MOQGAD      TELAPSE        7.32 TCPU        6.29
 TTTTTTTTTTTTTTTTTTTTTTTTTTTTTT SHELLXN     TELAPSE        7.49 TCPU        6.45

 ::: DIPOLE MOMENT ALONG NON PERIODIC DIRECTIONS:
 ::: A.U.     (Y) -7.81597E-14   (Z) -3.33067E-14
 ::: DEBYE         1.98662E-13        8.46572E-14

 +++ ENERGIES IN A.U. +++
 ::: EXT EL-POLE                                  -8.2910110761652E+03
 ::: EXT EL-SPHEROPOLE                             0.0000000000000E+00
 ::: BIELET ZONE E-E                               2.4792528190533E+03
 ::: TOTAL E-E                                    -5.8117582571119E+03
 ::: TOTAL E-N + N-E                               1.0082324589697E+04
 ::: TOTAL N-N                                    -6.3388648703700E+03
 ::: KINETIC ENERGY                                1.1083538519121E+03
 ::: PSEUDO TOTAL   ENERGY                        -9.5994468587277E+02
 ::: VIRIAL COEFFICIENT                            1.0717542285739E+00
 TTTTTTTTTTTTTTTTTTTTTTTTTTTTTT MONMO3      TELAPSE        7.50 TCPU        6.47
 NUMERICALLY INTEGRATED DENSITY    167.9992044943
 TTTTTTTTTTTTTTTTTTTTTTTTTTTTTT NUMDFT      TELAPSE        7.93 TCPU        6.89
 CYC   8 ETOT(AU) -1.113583404235E+03 DETOT  2.37E-09 tst  1.76E-13 PX  1.60E-05

 == SCF ENDED - CONVERGENCE ON ENERGY      E(AU) -1.1135834042346E+03 CYCLES   8


 ENERGY EXPRESSION=HARTREE+FOCK EXCH*0.00000+(PBE        EXCH)*1.00000+PBE        CORR


 TOTAL ENERGY(DFT)(AU)(  8) -1.1135834042346E+03 DE 2.4E-09 tester 1.8E-13
 TTTTTTTTTTTTTTTTTTTTTTTTTTTTTT EDFT        TELAPSE        7.93 TCPU        6.90

 *******************************************************************************
 *                             FORCE CALCULATION                               *
 *******************************************************************************

 TTTTTTTTTTTTTTTTTTTTTTTTTTTTTT NUMDFG      TELAPSE        9.59 TCPU        8.56
 INFORMATION **** EXCPOG **** EXCH. BIPO BUFFER LENGTH (WORDS) =           0
 INFORMATION **** GENPOG **** BIPO BUFFER LENGTH (WORDS) =      393400
 TTTTTTTTTTTTTTTTTTTTTTTTTTTTTT SHELXG      TELAPSE       10.10 TCPU        9.07

 CARTESIAN FORCES IN HARTREE/BOHR (ANALYTICAL)
   ATOM                     X                   Y                   Z
   1   5            -9.926543230671E-03 -2.532070390195E-03  5.522952540498E-15
   2   5            -9.926520866563E-03 -5.634386680597E-04 -2.468586098999E-03
   3   5            -9.926515837871E-03 -5.634386680433E-04  2.468586099003E-03
   4   5            -9.926548259370E-03  2.281316592899E-03 -1.098624168584E-03
   5   5            -9.926550285090E-03  2.281316592892E-03  1.098624168599E-03
   6   5            -9.926516682424E-03  1.578720065854E-03  1.979652346879E-03
   7   5            -9.926566982925E-03  1.578720065885E-03 -1.979652346870E-03
   8   5            -9.926546100971E-03 -1.578720065869E-03  1.979652346872E-03
   9   5            -9.926543098041E-03 -1.578720065867E-03 -1.979652346877E-03
  10   5            -9.926566982933E-03 -2.281316592892E-03 -1.098624168600E-03
  11   5            -9.926564824574E-03 -2.281316592896E-03  1.098624168599E-03
  12   5            -9.926508990420E-03  5.634386680495E-04 -2.468586098995E-03
  13   5            -9.926574674981E-03  5.634386680540E-04  2.468586099006E-03
  14   5            -9.926518840806E-03  2.532070390181E-03 -2.284729701263E-14
  15   7             9.926533466740E-03  2.701287868290E-02 -1.300871675462E-02
  16   7             9.926530891686E-03  2.701287868291E-02  1.300871675462E-02
  17   7             9.926606203481E-03  1.869349205913E-02  2.344089761452E-02
  18   7             9.926606203483E-03  1.869349205912E-02 -2.344089761452E-02
  19   7             9.926530891688E-03 -1.869349205911E-02  2.344089761455E-02
  20   7             9.926535122110E-03 -1.869349205910E-02 -2.344089761455E-02
  21   7             9.926606203482E-03 -2.701287868291E-02 -1.300871675461E-02
  22   7             9.926477461761E-03 -2.701287868290E-02  1.300871675463E-02
  23   7             9.926535122116E-03  6.671630072369E-03 -2.923032121815E-02
  24   7             9.926529496283E-03  6.671630072386E-03  2.923032121814E-02
  25   7             9.926477461762E-03  2.998203339233E-02  2.771051837432E-15
  26   7             9.926606203493E-03 -6.671630072388E-03  2.923032121814E-02
  27   7             9.926477461746E-03 -6.671630072383E-03 -2.923032121814E-02
  28   7             9.926533466761E-03 -2.998203339233E-02 -1.245035820472E-14

 RESULTANT FORCE    -1.049847708767E-12  2.353672812205E-14  4.969734941034E-15

 ATOMIC PART

 SYMMETRY ALLOWED FORCES (ANALYTICAL) (DIRECTION, FORCE)

    1 -5.2526322E-02    2 -9.4741399E-03    3  1.1218250E-01

 CELL PART

 GRADIENT WITH RESPECT TO THE CELL PARAMETER IN HARTREE/BOHR
 ORDER: -D/D A1X
  0.113433163531E+00

 SYMMETRY ALLOWED FORCES (ANALYTICAL) (DIRECTION, FORCE)

    1  8.1347137E-02
 TTTTTTTTTTTTTTTTTTTTTTTTTTTTTT TOTGRA_C    TELAPSE       10.99 TCPU        9.96
 INFORMATION **** optc001 **** GEOMETRY OUTPUT FILE
 CLASSICAL MODEL (SCHLEGEL) USED AS INITIAL HESSIAN MATRIX
 REFERENCE GEOMETRY DEFINED

 MAX GRADIENT      0.112182  THRESHOLD              0.000450 CONVERGED NO
 RMS GRADIENT      0.074248  THRESHOLD              0.000300 CONVERGED NO

 GRADIENT NORM     0.148496  GRADIENT THRESHOLD     0.500000

 EIGENVALUES OF THE ESTIMATED HESSIAN
  0.5266E-01  0.1906      0.3246       1.500    
 NEWTON STEP ( 0.1320023277E+01) EXCEEDS TRUST RADIUS ( 0.5000000000E+00)
 LEVEL SHIFT    -0.7448963047E-01

 INITIAL TRUST RADIUS    0.5000000000E+00

 PREDICTED ENERGY CHANGE    -0.485E-01

 INITIAL DISPLACEMENTS
 -0.023482  0.106998  0.465738  0.145218
 TTTTTTTTTTTTTTTTTTTTTTTTTTTTTT OPTI        TELAPSE       11.03 TCPU       10.00

 OPTOPTOPTOPTOPTOPTOPTOPTOPTOPTOPTOPTOPTOPTOPTOPTOPTOPTOPTOPTOPTOPTOPTOPTOPTOPT

 - INFORMATION ON SCF MOVED TO SCFOUT.LOG
 GEOMETRY OPTIMIZATION INFORMATION STORED IN OPTINFO.DAT

 OPTOPTOPTOPTOPTOPTOPTOPTOPTOPTOPTOPTOPTOPTOPTOPTOPTOPTOPTOPTOPTOPTOPTOPTOPTOPT
 *******************************************************************************
 COORDINATE AND CELL OPTIMIZATION - POINT    2
 *******************************************************************************
 LATTICE PARAMETERS (ANGSTROMS AND DEGREES) - BOHR = 0.5291772083 ANGSTROM
 PRIMITIVE CELL
         A              B              C           ALPHA      BETA       GAMMA 
     4.40255686   500.00000000   500.00000000    90.000000  90.000000  90.000000
 *******************************************************************************
 ATOMS IN THE ASYMMETRIC UNIT    2 - ATOMS IN THE UNIT CELL:   28
     ATOM                 X/A             Y(ANGSTROM)         Z(ANGSTROM)   R(ANGS)
 *******************************************************************************
      1 T   5 B    -0.33387349218E+00  0.28114848975E+01 -0.11625046324E-15   2.811
      2 F   5 B     0.16612650782E+00  0.62561424520E+00  0.27409951013E+01   2.811
      3 F   5 B     0.16612650782E+00  0.62561424520E+00 -0.27409951013E+01   2.811
      4 F   5 B    -0.33387349218E+00 -0.25330603652E+01  0.12198575798E+01   2.811
      5 F   5 B    -0.33387349218E+00 -0.25330603652E+01 -0.12198575798E+01   2.811
      6 F   5 B     0.16612650782E+00 -0.17529321617E+01 -0.21981074054E+01   2.811
      7 F   5 B     0.16612650782E+00 -0.17529321617E+01  0.21981074054E+01   2.811
      8 F   5 B    -0.33387349218E+00  0.17529321617E+01 -0.21981074054E+01   2.811
      9 F   5 B    -0.33387349218E+00  0.17529321617E+01  0.21981074054E+01   2.811
     10 F   5 B     0.16612650782E+00  0.25330603652E+01  0.12198575798E+01   2.811
     11 F   5 B     0.16612650782E+00  0.25330603652E+01 -0.12198575798E+01   2.811
     12 F   5 B    -0.33387349218E+00 -0.62561424520E+00  0.27409951013E+01   2.811
     13 F   5 B    -0.33387349218E+00 -0.62561424520E+00 -0.27409951013E+01   2.811
     14 F   5 B     0.16612650782E+00 -0.28114848975E+01  0.11436136497E-14   2.811
     15 T   7 N    -0.16612650782E+00  0.25787719879E+01 -0.12418711371E+01   2.862
     16 F   7 N    -0.16612650782E+00  0.25787719879E+01  0.12418711371E+01   2.862
     17 F   7 N     0.33387349218E+00  0.17845655861E+01  0.22377744649E+01   2.862
     18 F   7 N     0.33387349218E+00  0.17845655861E+01 -0.22377744649E+01   2.862
     19 F   7 N    -0.16612650782E+00 -0.17845655861E+01  0.22377744649E+01   2.862
     20 F   7 N    -0.16612650782E+00 -0.17845655861E+01 -0.22377744649E+01   2.862
     21 F   7 N     0.33387349218E+00 -0.25787719879E+01 -0.12418711371E+01   2.862
     22 F   7 N     0.33387349218E+00 -0.25787719879E+01  0.12418711371E+01   2.862
     23 F   7 N    -0.16612650782E+00  0.63690408366E+00 -0.27904591155E+01   2.862
     24 F   7 N    -0.16612650782E+00  0.63690408366E+00  0.27904591155E+01   2.862
     25 F   7 N     0.33387349218E+00  0.28622209710E+01 -0.94098340879E-15   2.862
     26 F   7 N     0.33387349218E+00 -0.63690408366E+00  0.27904591155E+01   2.862
     27 F   7 N     0.33387349218E+00 -0.63690408366E+00 -0.27904591155E+01   2.862
     28 F   7 N    -0.16612650782E+00 -0.28622209710E+01  0.21159928503E-14   2.862

 T = ATOM BELONGING TO THE ASYMMETRIC UNIT

 TOTAL ENERGY(DFT)(AU)(  7) -1.1136247380086E+03     DE (AU)   -4.133E-02

 UPDATED TRUST RADIUS     0.100E+01

 SYMMETRY ALLOWED FORCES  (COORDINATE, FORCE)

    1 -1.8737240E-02    2  2.1702152E-02    3  3.0297943E-02    4  1.3171893E-02

 GRADIENT NORM     0.043744  GRADIENT THRESHOLD     0.500000

 EIGENVALUES OF THE ESTIMATED HESSIAN
  0.5560E-01  0.2412      0.3543       1.479    

 PREDICTED ENERGY CHANGE    -0.110E-01

 MAX GRADIENT      0.030298  THRESHOLD              0.000450 CONVERGED NO
 RMS GRADIENT      0.021872  THRESHOLD              0.000300 CONVERGED NO
 MAX DISPLAC.      0.451069  THRESHOLD              0.001800 CONVERGED NO
 RMS DISPLAC.      0.305277  THRESHOLD              0.001200 CONVERGED NO
 TTTTTTTTTTTTTTTTTTTTTTTTTTTTTT OPTI        TELAPSE       19.57 TCPU       18.54
 *******************************************************************************
 COORDINATE AND CELL OPTIMIZATION - POINT    3
 *******************************************************************************
 LATTICE PARAMETERS (ANGSTROMS AND DEGREES) - BOHR = 0.5291772083 ANGSTROM
 PRIMITIVE CELL
         A              B              C           ALPHA      BETA       GAMMA 
     4.39935665   500.00000000   500.00000000    90.000000  90.000000  90.000000
 *******************************************************************************
 ATOMS IN THE ASYMMETRIC UNIT    2 - ATOMS IN THE UNIT CELL:   28
     ATOM                 X/A             Y(ANGSTROM)         Z(ANGSTROM)   R(ANGS)
 *******************************************************************************
      1 T   5 B    -0.33369344206E+00  0.28752789821E+01 -0.11964581401E-15   2.875
      2 F   5 B     0.16630655794E+00  0.63980976449E+00  0.28031897350E+01   2.875
      3 F   5 B     0.16630655794E+00  0.63980976449E+00 -0.28031897350E+01   2.875
      4 F   5 B    -0.33369344206E+00 -0.25905368494E+01  0.12475367958E+01   2.875
      5 F   5 B    -0.33369344206E+00 -0.25905368494E+01 -0.12475367958E+01   2.875
      6 F   5 B     0.16630655794E+00 -0.17927071229E+01 -0.22479836291E+01   2.875
      7 F   5 B     0.16630655794E+00 -0.17927071229E+01  0.22479836291E+01   2.875
      8 F   5 B    -0.33369344206E+00  0.17927071229E+01 -0.22479836291E+01   2.875
      9 F   5 B    -0.33369344206E+00  0.17927071229E+01  0.22479836291E+01   2.875
     10 F   5 B     0.16630655794E+00  0.25905368494E+01  0.12475367958E+01   2.875
     11 F   5 B     0.16630655794E+00  0.25905368494E+01 -0.12475367958E+01   2.875
     12 F   5 B    -0.33369344206E+00 -0.63980976449E+00  0.28031897350E+01   2.875
     13 F   5 B    -0.33369344206E+00 -0.63980976449E+00 -0.28031897350E+01   2.875
     14 F   5 B     0.16630655794E+00 -0.28752789821E+01  0.11470090005E-14   2.875
     15 T   7 N    -0.16630655794E+00  0.26311833043E+01 -0.12671110968E+01   2.920
     16 F   7 N    -0.16630655794E+00  0.26311833043E+01  0.12671110968E+01   2.920
     17 F   7 N     0.33369344206E+00  0.18208353424E+01  0.22832553008E+01   2.920
     18 F   7 N     0.33369344206E+00  0.18208353424E+01 -0.22832553008E+01   2.920
     19 F   7 N    -0.16630655794E+00 -0.18208353424E+01  0.22832553008E+01   2.920
     20 F   7 N    -0.16630655794E+00 -0.18208353424E+01 -0.22832553008E+01   2.920
     21 F   7 N     0.33369344206E+00 -0.26311833043E+01 -0.12671110968E+01   2.920
     22 F   7 N     0.33369344206E+00 -0.26311833043E+01  0.12671110968E+01   2.920
     23 F   7 N    -0.16630655794E+00  0.64984860981E+00 -0.28471727901E+01   2.920
     24 F   7 N    -0.16630655794E+00  0.64984860981E+00  0.28471727901E+01   2.920
     25 F   7 N     0.33369344206E+00  0.29203931435E+01 -0.94258668640E-15   2.920
     26 F   7 N     0.33369344206E+00 -0.64984860981E+00  0.28471727901E+01   2.920
     27 F   7 N     0.33369344206E+00 -0.64984860981E+00 -0.28471727901E+01   2.920
     28 F   7 N    -0.16630655794E+00 -0.29203931435E+01  0.21175961279E-14   2.920

 T = ATOM BELONGING TO THE ASYMMETRIC UNIT

 TOTAL ENERGY(DFT)(AU)(  7) -1.1136352231437E+03     DE (AU)   -1.049E-02

 UPDATED TRUST RADIUS     0.200E+01

 SYMMETRY ALLOWED FORCES  (COORDINATE, FORCE)

    1  1.8087295E-03    2 -8.9525601E-03    3  8.4585838E-03    4 -2.0742895E-03

 GRADIENT NORM     0.012620  GRADIENT THRESHOLD     0.500000

 EIGENVALUES OF THE ESTIMATED HESSIAN
  0.5607E-01  0.2475      0.3501       1.482    

 PREDICTED ENERGY CHANGE    -0.315E-03

 MAX GRADIENT      0.008953  THRESHOLD              0.000450 CONVERGED NO
 RMS GRADIENT      0.006310  THRESHOLD              0.000300 CONVERGED NO
 MAX DISPLAC.      0.035069  THRESHOLD              0.001800 CONVERGED NO
 RMS DISPLAC.      0.025175  THRESHOLD              0.001200 CONVERGED NO
 TTTTTTTTTTTTTTTTTTTTTTTTTTTTTT OPTI        TELAPSE       28.26 TCPU       27.23
 *******************************************************************************
 COORDINATE AND CELL OPTIMIZATION - POINT    4
 *******************************************************************************
 LATTICE PARAMETERS (ANGSTROMS AND DEGREES) - BOHR = 0.5291772083 ANGSTROM
 PRIMITIVE CELL
         A              B              C           ALPHA      BETA       GAMMA 
     4.39516653   500.00000000   500.00000000    90.000000  90.000000  90.000000
 *******************************************************************************
 ATOMS IN THE ASYMMETRIC UNIT    2 - ATOMS IN THE UNIT CELL:   28
     ATOM                 X/A             Y(ANGSTROM)         Z(ANGSTROM)   R(ANGS)
 *******************************************************************************
      1 T   5 B    -0.33365163116E+00  0.28703191701E+01 -0.11977837087E-15   2.870
      2 F   5 B     0.16634836884E+00  0.63870610248E+00  0.27983542758E+01   2.870
      3 F   5 B     0.16634836884E+00  0.63870610248E+00 -0.27983542758E+01   2.870
      4 F   5 B    -0.33365163116E+00 -0.25860682132E+01  0.12453848140E+01   2.870
      5 F   5 B    -0.33365163116E+00 -0.25860682132E+01 -0.12453848140E+01   2.870
      6 F   5 B     0.16634836884E+00 -0.17896147306E+01 -0.22441058919E+01   2.870
      7 F   5 B     0.16634836884E+00 -0.17896147306E+01  0.22441058919E+01   2.870
      8 F   5 B    -0.33365163116E+00  0.17896147306E+01 -0.22441058919E+01   2.870
      9 F   5 B    -0.33365163116E+00  0.17896147306E+01  0.22441058919E+01   2.870
     10 F   5 B     0.16634836884E+00  0.25860682132E+01  0.12453848140E+01   2.870
     11 F   5 B     0.16634836884E+00  0.25860682132E+01 -0.12453848140E+01   2.870
     12 F   5 B    -0.33365163116E+00 -0.63870610248E+00  0.27983542758E+01   2.870
     13 F   5 B    -0.33365163116E+00 -0.63870610248E+00 -0.27983542758E+01   2.870
     14 F   5 B     0.16634836884E+00 -0.28703191701E+01  0.11471415573E-14   2.870
     15 T   7 N    -0.16634836884E+00  0.26355657233E+01 -0.12692215586E+01   2.925
     16 F   7 N    -0.16634836884E+00  0.26355657233E+01  0.12692215586E+01   2.925
     17 F   7 N     0.33365163116E+00  0.18238680704E+01  0.22870582215E+01   2.925
     18 F   7 N     0.33365163116E+00  0.18238680704E+01 -0.22870582215E+01   2.925
     19 F   7 N    -0.16634836884E+00 -0.18238680704E+01  0.22870582215E+01   2.925
     20 F   7 N    -0.16634836884E+00 -0.18238680704E+01 -0.22870582215E+01   2.925
     21 F   7 N     0.33365163116E+00 -0.26355657233E+01 -0.12692215586E+01   2.925
     22 F   7 N     0.33365163116E+00 -0.26355657233E+01  0.12692215586E+01   2.925
     23 F   7 N    -0.16634836884E+00  0.65093097792E+00 -0.28519149547E+01   2.925
     24 F   7 N    -0.16634836884E+00  0.65093097792E+00  0.28519149547E+01   2.925
     25 F   7 N     0.33365163116E+00  0.29252572616E+01 -0.94256939746E-15   2.925
     26 F   7 N     0.33365163116E+00 -0.65093097792E+00  0.28519149547E+01   2.925
     27 F   7 N     0.33365163116E+00 -0.65093097792E+00 -0.28519149547E+01   2.925
     28 F   7 N    -0.16634836884E+00 -0.29252572616E+01  0.21175788390E-14   2.925

 T = ATOM BELONGING TO THE ASYMMETRIC UNIT

 TOTAL ENERGY(DFT)(AU)(  5) -1.1136354591227E+03     DE (AU)   -2.360E-04

 UPDATED TRUST RADIUS     0.200E+01

 SYMMETRY ALLOWED FORCES  (COORDINATE, FORCE)

    1  3.1564578E-03    2  1.8517154E-03    3 -1.9932727E-03    4  1.9724330E-03

 GRADIENT NORM     0.004610  GRADIENT THRESHOLD     0.500000

 EIGENVALUES OF THE ESTIMATED HESSIAN
  0.5609E-01  0.3044      0.3513       1.484    

 PREDICTED ENERGY CHANGE    -0.186E-04

 MAX GRADIENT      0.003156  THRESHOLD              0.000450 CONVERGED NO
 RMS GRADIENT      0.002305  THRESHOLD              0.000300 CONVERGED NO
 MAX DISPLAC.      0.007740  THRESHOLD              0.001800 CONVERGED NO
 RMS DISPLAC.      0.005112  THRESHOLD              0.001200 CONVERGED NO
 TTTTTTTTTTTTTTTTTTTTTTTTTTTTTT OPTI        TELAPSE       35.65 TCPU       34.62
 *******************************************************************************
 COORDINATE AND CELL OPTIMIZATION - POINT    5
 *******************************************************************************
 LATTICE PARAMETERS (ANGSTROMS AND DEGREES) - BOHR = 0.5291772083 ANGSTROM
 PRIMITIVE CELL
         A              B              C           ALPHA      BETA       GAMMA 
     4.39705657   500.00000000   500.00000000    90.000000  90.000000  90.000000
 *******************************************************************************
 ATOMS IN THE ASYMMETRIC UNIT    2 - ATOMS IN THE UNIT CELL:   28
     ATOM                 X/A             Y(ANGSTROM)         Z(ANGSTROM)   R(ANGS)
 *******************************************************************************
      1 T   5 B    -0.33362175578E+00  0.28709304015E+01 -0.11974111555E-15   2.871
      2 F   5 B     0.16637824422E+00  0.63884211426E+00  0.27989501823E+01   2.871
      3 F   5 B     0.16637824422E+00  0.63884211426E+00 -0.27989501823E+01   2.871
      4 F   5 B    -0.33362175578E+00 -0.25866189137E+01  0.12456500173E+01   2.871
      5 F   5 B    -0.33362175578E+00 -0.25866189137E+01 -0.12456500173E+01   2.871
      6 F   5 B     0.16637824422E+00 -0.17899958272E+01 -0.22445837719E+01   2.871
      7 F   5 B     0.16637824422E+00 -0.17899958272E+01  0.22445837719E+01   2.871
      8 F   5 B    -0.33362175578E+00  0.17899958272E+01 -0.22445837719E+01   2.871
      9 F   5 B    -0.33362175578E+00  0.17899958272E+01  0.22445837719E+01   2.871
     10 F   5 B     0.16637824422E+00  0.25866189137E+01  0.12456500173E+01   2.871
     11 F   5 B     0.16637824422E+00  0.25866189137E+01 -0.12456500173E+01   2.871
     12 F   5 B    -0.33362175578E+00 -0.63884211426E+00  0.27989501823E+01   2.871
     13 F   5 B    -0.33362175578E+00 -0.63884211426E+00 -0.27989501823E+01   2.871
     14 F   5 B     0.16637824422E+00 -0.28709304015E+01  0.11471043020E-14   2.871
     15 T   7 N    -0.16637824422E+00  0.26345794817E+01 -0.12687466096E+01   2.924
     16 F   7 N    -0.16637824422E+00  0.26345794817E+01  0.12687466096E+01   2.924
     17 F   7 N     0.33362175578E+00  0.18231855701E+01  0.22862023931E+01   2.924
     18 F   7 N     0.33362175578E+00  0.18231855701E+01 -0.22862023931E+01   2.924
     19 F   7 N    -0.16637824422E+00 -0.18231855701E+01  0.22862023931E+01   2.924
     20 F   7 N    -0.16637824422E+00 -0.18231855701E+01 -0.22862023931E+01   2.924
     21 F   7 N     0.33362175578E+00 -0.26345794817E+01 -0.12687466096E+01   2.924
     22 F   7 N     0.33362175578E+00 -0.26345794817E+01  0.12687466096E+01   2.924
     23 F   7 N    -0.16637824422E+00  0.65068739636E+00 -0.28508477541E+01   2.924
     24 F   7 N    -0.16637824422E+00  0.65068739636E+00  0.28508477541E+01   2.924
     25 F   7 N     0.33362175578E+00  0.29241626160E+01 -0.94256586420E-15   2.924
     26 F   7 N     0.33362175578E+00 -0.65068739636E+00  0.28508477541E+01   2.924
     27 F   7 N     0.33362175578E+00 -0.65068739636E+00 -0.28508477541E+01   2.924
     28 F   7 N    -0.16637824422E+00 -0.29241626160E+01  0.21175753057E-14   2.924

 T = ATOM BELONGING TO THE ASYMMETRIC UNIT

 TOTAL ENERGY(DFT)(AU)(  5) -1.1136354806127E+03     DE (AU)   -2.149E-05

 UPDATED TRUST RADIUS     0.400E+01

 SYMMETRY ALLOWED FORCES  (COORDINATE, FORCE)

    1  1.1376496E-03    2  2.4012304E-05    3 -5.3114202E-05    4 -5.0892065E-05

 GRADIENT NORM     0.001140  GRADIENT THRESHOLD     0.500000

 EIGENVALUES OF THE ESTIMATED HESSIAN
  0.5644E-01  0.3034      0.3752       1.320    

 PREDICTED ENERGY CHANGE    -0.539E-06

 MAX GRADIENT      0.001138  THRESHOLD              0.000450 CONVERGED NO
 RMS GRADIENT      0.000570  THRESHOLD              0.000300 CONVERGED NO
 MAX DISPLAC.      0.000925  THRESHOLD              0.001800 CONVERGED YES
 RMS DISPLAC.      0.000596  THRESHOLD              0.001200 CONVERGED YES
 TTTTTTTTTTTTTTTTTTTTTTTTTTTTTT OPTI        TELAPSE       42.88 TCPU       41.72
 *******************************************************************************
 COORDINATE AND CELL OPTIMIZATION - POINT    6
 *******************************************************************************
 LATTICE PARAMETERS (ANGSTROMS AND DEGREES) - BOHR = 0.5291772083 ANGSTROM
 PRIMITIVE CELL
         A              B              C           ALPHA      BETA       GAMMA 
     4.39689539   500.00000000   500.00000000    90.000000  90.000000  90.000000
 *******************************************************************************
 ATOMS IN THE ASYMMETRIC UNIT    2 - ATOMS IN THE UNIT CELL:   28
     ATOM                 X/A             Y(ANGSTROM)         Z(ANGSTROM)   R(ANGS)
 *******************************************************************************
      1 T   5 B    -0.33360048887E+00  0.28710148285E+01 -0.11974348445E-15   2.871
      2 F   5 B     0.16639951113E+00  0.63886090104E+00  0.27990324926E+01   2.871
      3 F   5 B     0.16639951113E+00  0.63886090104E+00 -0.27990324926E+01   2.871
      4 F   5 B    -0.33360048887E+00 -0.25866949798E+01  0.12456866488E+01   2.871
      5 F   5 B    -0.33360048887E+00 -0.25866949798E+01 -0.12456866488E+01   2.871
      6 F   5 B     0.16639951113E+00 -0.17900484665E+01 -0.22446497795E+01   2.871
      7 F   5 B     0.16639951113E+00 -0.17900484665E+01  0.22446497795E+01   2.871
      8 F   5 B    -0.33360048887E+00  0.17900484665E+01 -0.22446497795E+01   2.871
      9 F   5 B    -0.33360048887E+00  0.17900484665E+01  0.22446497795E+01   2.871
     10 F   5 B     0.16639951113E+00  0.25866949798E+01  0.12456866488E+01   2.871
     11 F   5 B     0.16639951113E+00  0.25866949798E+01 -0.12456866488E+01   2.871
     12 F   5 B    -0.33360048887E+00 -0.63886090104E+00  0.27990324926E+01   2.871
     13 F   5 B    -0.33360048887E+00 -0.63886090104E+00 -0.27990324926E+01   2.871
     14 F   5 B     0.16639951113E+00 -0.28710148285E+01  0.11471066709E-14   2.871
     15 T   7 N    -0.16639951113E+00  0.26346035310E+01 -0.12687581912E+01   2.924
     16 F   7 N    -0.16639951113E+00  0.26346035310E+01  0.12687581912E+01   2.924
     17 F   7 N     0.33360048887E+00  0.18232022127E+01  0.22862232623E+01   2.924
     18 F   7 N     0.33360048887E+00  0.18232022127E+01 -0.22862232623E+01   2.924
     19 F   7 N    -0.16639951113E+00 -0.18232022127E+01  0.22862232623E+01   2.924
     20 F   7 N    -0.16639951113E+00 -0.18232022127E+01 -0.22862232623E+01   2.924
     21 F   7 N     0.33360048887E+00 -0.26346035310E+01 -0.12687581912E+01   2.924
     22 F   7 N     0.33360048887E+00 -0.26346035310E+01  0.12687581912E+01   2.924
     23 F   7 N    -0.16639951113E+00  0.65069333604E+00 -0.28508737776E+01   2.924
     24 F   7 N    -0.16639951113E+00  0.65069333604E+00  0.28508737776E+01   2.924
     25 F   7 N     0.33360048887E+00  0.29241893087E+01 -0.94256741079E-15   2.924
     26 F   7 N     0.33360048887E+00 -0.65069333604E+00  0.28508737776E+01   2.924
     27 F   7 N     0.33360048887E+00 -0.65069333604E+00 -0.28508737776E+01   2.924
     28 F   7 N    -0.16639951113E+00 -0.29241893087E+01  0.21175768523E-14   2.924

 T = ATOM BELONGING TO THE ASYMMETRIC UNIT

 TOTAL ENERGY(DFT)(AU)(  3) -1.1136354814010E+03     DE (AU)   -7.883E-07

 UPDATED TRUST RADIUS     0.400E+01

 SYMMETRY ALLOWED FORCES  (COORDINATE, FORCE)

    1  4.7331622E-04    2 -4.8532483E-05    3  3.5146581E-05    4 -2.2711418E-05

 GRADIENT NORM     0.000478  GRADIENT THRESHOLD     0.500000

 EIGENVALUES OF THE ESTIMATED HESSIAN
  0.5574E-01  0.3226      0.3491      0.8186    

 PREDICTED ENERGY CHANGE    -0.167E-06

 MAX GRADIENT      0.000473  THRESHOLD              0.000450 CONVERGED NO
 RMS GRADIENT      0.000239  THRESHOLD              0.000300 CONVERGED YES
 MAX DISPLAC.      0.000672  THRESHOLD              0.001800 CONVERGED YES
 RMS DISPLAC.      0.000422  THRESHOLD              0.001200 CONVERGED YES
 TTTTTTTTTTTTTTTTTTTTTTTTTTTTTT OPTI        TELAPSE       48.85 TCPU       47.69
 *******************************************************************************
 COORDINATE AND CELL OPTIMIZATION - POINT    7
 *******************************************************************************
 LATTICE PARAMETERS (ANGSTROMS AND DEGREES) - BOHR = 0.5291772083 ANGSTROM
 PRIMITIVE CELL
         A              B              C           ALPHA      BETA       GAMMA 
     4.39678287   500.00000000   500.00000000    90.000000  90.000000  90.000000
 *******************************************************************************
 ATOMS IN THE ASYMMETRIC UNIT    2 - ATOMS IN THE UNIT CELL:   28
     ATOM                 X/A             Y(ANGSTROM)         Z(ANGSTROM)   R(ANGS)
 *******************************************************************************
      1 T   5 B    -0.33358503557E+00  0.28710271379E+01 -0.11974610768E-15   2.871
      2 F   5 B     0.16641496443E+00  0.63886364014E+00  0.27990444934E+01   2.871
      3 F   5 B     0.16641496443E+00  0.63886364014E+00 -0.27990444934E+01   2.871
      4 F   5 B    -0.33358503557E+00 -0.25867060702E+01  0.12456919897E+01   2.871
      5 F   5 B    -0.33358503557E+00 -0.25867060702E+01 -0.12456919897E+01   2.871
      6 F   5 B     0.16641496443E+00 -0.17900561413E+01 -0.22446594034E+01   2.871
      7 F   5 B     0.16641496443E+00 -0.17900561413E+01  0.22446594034E+01   2.871
      8 F   5 B    -0.33358503557E+00  0.17900561413E+01 -0.22446594034E+01   2.871
      9 F   5 B    -0.33358503557E+00  0.17900561413E+01  0.22446594034E+01   2.871
     10 F   5 B     0.16641496443E+00  0.25867060702E+01  0.12456919897E+01   2.871
     11 F   5 B     0.16641496443E+00  0.25867060702E+01 -0.12456919897E+01   2.871
     12 F   5 B    -0.33358503557E+00 -0.63886364014E+00  0.27990444934E+01   2.871
     13 F   5 B    -0.33358503557E+00 -0.63886364014E+00 -0.27990444934E+01   2.871
     14 F   5 B     0.16641496443E+00 -0.28710271379E+01  0.11471092941E-14   2.871
     15 T   7 N    -0.16641496443E+00  0.26346556190E+01 -0.12687832754E+01   2.924
     16 F   7 N    -0.16641496443E+00  0.26346556190E+01  0.12687832754E+01   2.924
     17 F   7 N     0.33358503557E+00  0.18232382587E+01  0.22862684625E+01   2.924
     18 F   7 N     0.33358503557E+00  0.18232382587E+01 -0.22862684625E+01   2.924
     19 F   7 N    -0.16641496443E+00 -0.18232382587E+01  0.22862684625E+01   2.924
     20 F   7 N    -0.16641496443E+00 -0.18232382587E+01 -0.22862684625E+01   2.924
     21 F   7 N     0.33358503557E+00 -0.26346556190E+01 -0.12687832754E+01   2.924
     22 F   7 N     0.33358503557E+00 -0.26346556190E+01  0.12687832754E+01   2.924
     23 F   7 N    -0.16641496443E+00  0.65070620072E+00 -0.28509301414E+01   2.924
     24 F   7 N    -0.16641496443E+00  0.65070620072E+00  0.28509301414E+01   2.924
     25 F   7 N     0.33358503557E+00  0.29242471220E+01 -0.94256825300E-15   2.924
     26 F   7 N     0.33358503557E+00 -0.65070620072E+00  0.28509301414E+01   2.924
     27 F   7 N     0.33358503557E+00 -0.65070620072E+00 -0.28509301414E+01   2.924
     28 F   7 N    -0.16641496443E+00 -0.29242471220E+01  0.21175776945E-14   2.924

 T = ATOM BELONGING TO THE ASYMMETRIC UNIT

 TOTAL ENERGY(DFT)(AU)(  3) -1.1136354815716E+03     DE (AU)   -1.707E-07

 UPDATED TRUST RADIUS     0.400E+01

 SYMMETRY ALLOWED FORCES  (COORDINATE, FORCE)

    1 -1.4859498E-05    2 -7.3838219E-06    3  1.5535513E-05    4 -3.5642166E-06

 GRADIENT NORM     0.000023  GRADIENT THRESHOLD     0.500000

 EIGENVALUES OF THE ESTIMATED HESSIAN
  0.5502E-01  0.3149      0.3491      0.8579    

 PREDICTED ENERGY CHANGE    -0.736E-09

 MAX GRADIENT      0.000016  THRESHOLD              0.000450 CONVERGED YES
 RMS GRADIENT      0.000012  THRESHOLD              0.000300 CONVERGED YES
 MAX DISPLAC.      0.000098  THRESHOLD              0.001800 CONVERGED YES
 RMS DISPLAC.      0.000052  THRESHOLD              0.001200 CONVERGED YES

 CONVERGENCE TESTS SATISFIED AFTER   7 ENERGY AND GRADIENT CALCULATIONS
 +++++++++++++++++++++++++++++++++++++++++++++++++++++++++++++++++++++++++++++++
 FINALRUN OPTION: RE-STARTING OPTIMIZATION
 +++++++++++++++++++++++++++++++++++++++++++++++++++++++++++++++++++++++++++++++
 TTTTTTTTTTTTTTTTTTTTTTTTTTTTTT OPTI        TELAPSE       54.95 TCPU       53.79
 *******************************************************************************
 COORDINATE AND CELL OPTIMIZATION - POINT    8
 *******************************************************************************
 LATTICE PARAMETERS (ANGSTROMS AND DEGREES) - BOHR = 0.5291772083 ANGSTROM
 PRIMITIVE CELL
         A              B              C           ALPHA      BETA       GAMMA 
     4.39677798   500.00000000   500.00000000    90.000000  90.000000  90.000000
 *******************************************************************************
 ATOMS IN THE ASYMMETRIC UNIT    2 - ATOMS IN THE UNIT CELL:   28
     ATOM                 X/A             Y(ANGSTROM)         Z(ANGSTROM)   R(ANGS)
 *******************************************************************************
      1 T   5 B    -0.33358523124E+00  0.28710314157E+01 -0.11974675669E-15   2.871
      2 F   5 B     0.16641476876E+00  0.63886459204E+00  0.27990486639E+01   2.871
      3 F   5 B     0.16641476876E+00  0.63886459204E+00 -0.27990486639E+01   2.871
      4 F   5 B    -0.33358523124E+00 -0.25867099243E+01  0.12456938458E+01   2.871
      5 F   5 B    -0.33358523124E+00 -0.25867099243E+01 -0.12456938458E+01   2.871
      6 F   5 B     0.16641476876E+00 -0.17900588085E+01 -0.22446627479E+01   2.871
      7 F   5 B     0.16641476876E+00 -0.17900588085E+01  0.22446627479E+01   2.871
      8 F   5 B    -0.33358523124E+00  0.17900588085E+01 -0.22446627479E+01   2.871
      9 F   5 B    -0.33358523124E+00  0.17900588085E+01  0.22446627479E+01   2.871
     10 F   5 B     0.16641476876E+00  0.25867099243E+01  0.12456938458E+01   2.871
     11 F   5 B     0.16641476876E+00  0.25867099243E+01 -0.12456938458E+01   2.871
     12 F   5 B    -0.33358523124E+00 -0.63886459204E+00  0.27990486639E+01   2.871
     13 F   5 B    -0.33358523124E+00 -0.63886459204E+00 -0.27990486639E+01   2.871
     14 F   5 B     0.16641476876E+00 -0.28710314157E+01  0.11471099431E-14   2.871
     15 T   7 N    -0.16641476876E+00  0.26346681195E+01 -0.12687892953E+01   2.924
     16 F   7 N    -0.16641476876E+00  0.26346681195E+01  0.12687892953E+01   2.924
     17 F   7 N     0.33358523124E+00  0.18232469093E+01  0.22862793100E+01   2.924
     18 F   7 N     0.33358523124E+00  0.18232469093E+01 -0.22862793100E+01   2.924
     19 F   7 N    -0.16641476876E+00 -0.18232469093E+01  0.22862793100E+01   2.924
     20 F   7 N    -0.16641476876E+00 -0.18232469093E+01 -0.22862793100E+01   2.924
     21 F   7 N     0.33358523124E+00 -0.26346681195E+01 -0.12687892953E+01   2.924
     22 F   7 N     0.33358523124E+00 -0.26346681195E+01  0.12687892953E+01   2.924
     23 F   7 N    -0.16641476876E+00  0.65070928808E+00 -0.28509436680E+01   2.924
     24 F   7 N    -0.16641476876E+00  0.65070928808E+00  0.28509436680E+01   2.924
     25 F   7 N     0.33358523124E+00  0.29242609965E+01 -0.94256847459E-15   2.924
     26 F   7 N     0.33358523124E+00 -0.65070928808E+00  0.28509436680E+01   2.924
     27 F   7 N     0.33358523124E+00 -0.65070928808E+00 -0.28509436680E+01   2.924
     28 F   7 N    -0.16641476876E+00 -0.29242609965E+01  0.21175779161E-14   2.924

 T = ATOM BELONGING TO THE ASYMMETRIC UNIT

 REFERENCE GEOMETRY WILL BE CHANGED

 TOTAL ENERGY(DFT)(AU)(  7) -1.1136358679699E+03     DE (AU)   -3.864E-04

 SYMMETRY ALLOWED FORCES  (COORDINATE, FORCE)

    1  6.3764200E-05    2 -1.6461312E-04    3 -5.5985496E-05    4 -1.9211241E-04

 GRADIENT NORM     0.000267  GRADIENT THRESHOLD     0.500000

 HESSIAN UPDATE SKIPPED

 EIGENVALUES OF THE ESTIMATED HESSIAN
  0.5502E-01  0.3149      0.3491      0.8579    

 PREDICTED ENERGY CHANGE    -0.225E-06

 MAX GRADIENT      0.000192  THRESHOLD              0.000450 CONVERGED YES
 RMS GRADIENT      0.000133  THRESHOLD              0.000300 CONVERGED YES
 MAX DISPLAC.      0.001850  THRESHOLD              0.001800 CONVERGED NO
 RMS DISPLAC.      0.001198  THRESHOLD              0.001200 CONVERGED YES
 TTTTTTTTTTTTTTTTTTTTTTTTTTTTTT OPTI        TELAPSE       63.15 TCPU       61.80
 *******************************************************************************
 COORDINATE AND CELL OPTIMIZATION - POINT    9
 *******************************************************************************
 LATTICE PARAMETERS (ANGSTROMS AND DEGREES) - BOHR = 0.5291772083 ANGSTROM
 PRIMITIVE CELL
         A              B              C           ALPHA      BETA       GAMMA 
     4.39665467   500.00000000   500.00000000    90.000000  90.000000  90.000000
 *******************************************************************************
 ATOMS IN THE ASYMMETRIC UNIT    2 - ATOMS IN THE UNIT CELL:   28
     ATOM                 X/A             Y(ANGSTROM)         Z(ANGSTROM)   R(ANGS)
 *******************************************************************************
      1 T   5 B    -0.33358481929E+00  0.28707697958E+01 -0.11973360263E-15   2.871
      2 F   5 B     0.16641518071E+00  0.63880637614E+00  0.27987936034E+01   2.871
      3 F   5 B     0.16641518071E+00  0.63880637614E+00 -0.27987936034E+01   2.871
      4 F   5 B    -0.33358481929E+00 -0.25864742130E+01  0.12455803332E+01   2.871
      5 F   5 B    -0.33358481929E+00 -0.25864742130E+01 -0.12455803332E+01   2.871
      6 F   5 B     0.16641518071E+00 -0.17898956912E+01 -0.22444582053E+01   2.871
      7 F   5 B     0.16641518071E+00 -0.17898956912E+01  0.22444582053E+01   2.871
      8 F   5 B    -0.33358481929E+00  0.17898956912E+01 -0.22444582053E+01   2.871
      9 F   5 B    -0.33358481929E+00  0.17898956912E+01  0.22444582053E+01   2.871
     10 F   5 B     0.16641518071E+00  0.25864742130E+01  0.12455803332E+01   2.871
     11 F   5 B     0.16641518071E+00  0.25864742130E+01 -0.12455803332E+01   2.871
     12 F   5 B    -0.33358481929E+00 -0.63880637614E+00  0.27987936034E+01   2.871
     13 F   5 B    -0.33358481929E+00 -0.63880637614E+00 -0.27987936034E+01   2.871
     14 F   5 B     0.16641518071E+00 -0.28707697958E+01  0.11470967891E-14   2.871
     15 T   7 N    -0.16641518071E+00  0.26344786163E+01 -0.12686980354E+01   2.924
     16 F   7 N    -0.16641518071E+00  0.26344786163E+01  0.12686980354E+01   2.924
     17 F   7 N     0.33358481929E+00  0.18231157690E+01  0.22861148653E+01   2.924
     18 F   7 N     0.33358481929E+00  0.18231157690E+01 -0.22861148653E+01   2.924
     19 F   7 N    -0.16641518071E+00 -0.18231157690E+01  0.22861148653E+01   2.924
     20 F   7 N    -0.16641518071E+00 -0.18231157690E+01 -0.22861148653E+01   2.924
     21 F   7 N     0.33358481929E+00 -0.26344786163E+01 -0.12686980354E+01   2.924
     22 F   7 N     0.33358481929E+00 -0.26344786163E+01  0.12686980354E+01   2.924
     23 F   7 N    -0.16641518071E+00  0.65066248466E+00 -0.28507386088E+01   2.924
[...]
 TTTTTTTTTTTTTTTTTTTTTTTTTTTTTT DIIS        TELAPSE      222.91 TCPU      220.42
 DIIS TEST: 0.66477E-04 AT SCF   CYCLE   6 - DIIS ACTIVE - HISTORY:     6 CYCLES
 TTTTTTTTTTTTTTTTTTTTTTTTTTTTTT FDIK        TELAPSE      223.05 TCPU      220.56
 INSULATING STATE
 TOP OF VALENCE BANDS -    BAND    264; K    1; EIG -2.0923844E-01 AU
 BOTTOM OF VIRTUAL BANDS - BAND    265; K    1; EIG -1.0788006E-01 AU
 DIRECT ENERGY BAND GAP:   2.7581 eV
 TTTTTTTTTTTTTTTTTTTTTTTTTTTTTT PDIG        TELAPSE      223.09 TCPU      220.60
 CHARGE NORMALIZATION FACTOR   1.00000000
 TOTAL ATOMIC CHARGES:
   4.1402090   4.1294059   4.1294059   4.1230096   4.1230096   4.1371785
   4.1371785   4.1371785   4.1371785   4.1230096   4.1230096   4.1294059
   4.1294059   4.1402090   7.8743037   7.8743037   7.8781195   7.8781195
   7.8781195   7.8781195   7.8743037   7.8743037   7.8760964   7.8760964
   7.8790790   7.8760964   7.8760964   7.8790790   4.1136076   4.1139224
   4.1139224   4.1149516   4.1149516   4.1159363   4.1159363   4.1160192
   4.1160192   4.1156399   4.1156399   4.1142714   4.1142714   4.1136903
   4.1136903   4.1136903   4.1136903   4.1142714   4.1142714   4.1156399
   4.1156399   4.1160192   4.1160192   4.1159363   4.1159363   4.1149516
   4.1149516   4.1139224   4.1139224   4.1136076   7.8833070   7.8833070
   7.8854979   7.8854979   7.8858820   7.8858820   7.8847334   7.8847334
   7.8809412   7.8809412   7.8754665   7.8754665   7.8754665   7.8754665
   7.8809412   7.8809412   7.8847334   7.8847334   7.8858820   7.8858820
   7.8854979   7.8854979   7.8833070   7.8833070   7.8780007   7.8780007
   7.8743575   7.8780007   7.8780007   7.8743575
 TTTTTTTTTTTTTTTTTTTTTTTTTTTTTT MOQGAD      TELAPSE      223.11 TCPU      220.62
 TTTTTTTTTTTTTTTTTTTTTTTTTTTTTT SHELLXN     TELAPSE      226.87 TCPU      224.38
 TTTTTTTTTTTTTTTTTTTTTTTTTTTTTT MONMO3      TELAPSE      228.49 TCPU      225.99
 NUMERICALLY INTEGRATED DENSITY    527.9989090158
 TTTTTTTTTTTTTTTTTTTTTTTTTTTTTT NUMDFT      TELAPSE      235.63 TCPU      233.13
 CYC   7 ETOT(AU) -3.500330267667E+03 DETOT -1.84E-05 tst  5.38E-08 PX  6.13E-04
 TTTTTTTTTTTTTTTTTTTTTTTTTTTTTT DIIS        TELAPSE      235.67 TCPU      233.18
 DIIS TEST: 0.28568E-05 AT SCF   CYCLE   7 - DIIS ACTIVE - HISTORY:     7 CYCLES
 TTTTTTTTTTTTTTTTTTTTTTTTTTTTTT FDIK        TELAPSE      235.84 TCPU      233.35
 INSULATING STATE
 TOP OF VALENCE BANDS -    BAND    264; K    1; EIG -2.0920285E-01 AU
 BOTTOM OF VIRTUAL BANDS - BAND    265; K    1; EIG -1.0780686E-01 AU
 DIRECT ENERGY BAND GAP:   2.7591 eV
 TTTTTTTTTTTTTTTTTTTTTTTTTTTTTT PDIG        TELAPSE      235.87 TCPU      233.38
 CHARGE NORMALIZATION FACTOR   1.00000000
 TOTAL ATOMIC CHARGES:
   4.1398598   4.1290927   4.1290927   4.1227060   4.1227060   4.1368774
   4.1368774   4.1368774   4.1368774   4.1227060   4.1227060   4.1290927
   4.1290927   4.1398598   7.8746217   7.8746217   7.8783913   7.8783913
   7.8783913   7.8783913   7.8746217   7.8746217   7.8764367   7.8764367
   7.8792929   7.8764367   7.8764367   7.8792929   4.1137513   4.1140430
   4.1140430   4.1150674   4.1150674   4.1160015   4.1160015   4.1160560
   4.1160560   4.1157228   4.1157228   4.1143722   4.1143722   4.1138315
   4.1138315   4.1138315   4.1138315   4.1143722   4.1143722   4.1157228
   4.1157228   4.1160560   4.1160560   4.1160015   4.1160015   4.1150674
   4.1150674   4.1140430   4.1140430   4.1137513   7.8832953   7.8832953
   7.8858050   7.8858050   7.8862405   7.8862405   7.8849192   7.8849192
   7.8807288   7.8807288   7.8748938   7.8748938   7.8748938   7.8748938
   7.8807288   7.8807288   7.8849192   7.8849192   7.8862405   7.8862405
   7.8858050   7.8858050   7.8832953   7.8832953   7.8775839   7.8775839
   7.8737231   7.8775839   7.8775839   7.8737231
 TTTTTTTTTTTTTTTTTTTTTTTTTTTTTT MOQGAD      TELAPSE      235.90 TCPU      233.41
 TTTTTTTTTTTTTTTTTTTTTTTTTTTTTT SHELLXN     TELAPSE      239.66 TCPU      237.17
 TTTTTTTTTTTTTTTTTTTTTTTTTTTTTT MONMO3      TELAPSE      241.26 TCPU      238.77
 NUMERICALLY INTEGRATED DENSITY    527.9989087917
 TTTTTTTTTTTTTTTTTTTTTTTTTTTTTT NUMDFT      TELAPSE      248.41 TCPU      245.92
 CYC   8 ETOT(AU) -3.500330268462E+03 DETOT -7.95E-07 tst  2.19E-09 PX  1.40E-04
 TTTTTTTTTTTTTTTTTTTTTTTTTTTTTT DIIS        TELAPSE      248.45 TCPU      245.96
 DIIS TEST: 0.68481E-06 AT SCF   CYCLE   8 - DIIS ACTIVE - HISTORY:     8 CYCLES
 TTTTTTTTTTTTTTTTTTTTTTTTTTTTTT FDIK        TELAPSE      248.60 TCPU      246.10
 INSULATING STATE
 TOP OF VALENCE BANDS -    BAND    264; K    1; EIG -2.0921653E-01 AU
 BOTTOM OF VIRTUAL BANDS - BAND    265; K    1; EIG -1.0776617E-01 AU
 DIRECT ENERGY BAND GAP:   2.7606 eV
 TTTTTTTTTTTTTTTTTTTTTTTTTTTTTT PDIG        TELAPSE      248.63 TCPU      246.14
 CHARGE NORMALIZATION FACTOR   1.00000000
 TOTAL ATOMIC CHARGES:
   4.1400617   4.1292585   4.1292585   4.1228681   4.1228681   4.1370473
   4.1370473   4.1370473   4.1370473   4.1228681   4.1228681   4.1292585
   4.1292585   4.1400617   7.8744094   7.8744094   7.8782265   7.8782265
   7.8782265   7.8782265   7.8744094   7.8744094   7.8762098   7.8762098
   7.8791727   7.8762098   7.8762098   7.8791727   4.1136277   4.1139415
   4.1139415   4.1149773   4.1149773   4.1159304   4.1159304   4.1159948
   4.1159948   4.1156466   4.1156466   4.1142855   4.1142855   4.1137139
   4.1137139   4.1137139   4.1137139   4.1142855   4.1142855   4.1156466
   4.1156466   4.1159948   4.1159948   4.1159304   4.1159304   4.1149773
   4.1149773   4.1139415   4.1139415   4.1136277   7.8834221   7.8834221
   7.8858189   7.8858189   7.8862352   7.8862352   7.8849758   7.8849758
   7.8808737   7.8808737   7.8750535   7.8750535   7.8750535   7.8750535
   7.8808737   7.8808737   7.8849758   7.8849758   7.8862352   7.8862352
   7.8858189   7.8858189   7.8834221   7.8834221   7.8777380   7.8777380
   7.8738844   7.8777380   7.8777380   7.8738844
 TTTTTTTTTTTTTTTTTTTTTTTTTTTTTT MOQGAD      TELAPSE      248.65 TCPU      246.16
 TTTTTTTTTTTTTTTTTTTTTTTTTTTTTT SHELLXN     TELAPSE      252.41 TCPU      249.92

 ::: DIPOLE MOMENT ALONG NON PERIODIC DIRECTIONS:
 ::: A.U.     (Y)  4.74378E-13   (Z)  8.52651E-14
 ::: DEBYE        -1.20575E-12       -2.16722E-13

 +++ ENERGIES IN A.U. +++
 ::: EXT EL-POLE                                  -8.8573276444190E+04
 ::: EXT EL-SPHEROPOLE                             0.0000000000000E+00
 ::: BIELET ZONE E-E                               8.8696227755964E+03
 ::: TOTAL E-E                                    -7.9703653668594E+04
 ::: TOTAL E-N + N-E                               1.5456733047588E+05
 ::: TOTAL N-N                                    -8.1357968242945E+04
 ::: KINETIC ENERGY                                3.4750776268175E+03
 ::: PSEUDO TOTAL   ENERGY                        -3.0192138088422E+03
 ::: VIRIAL COEFFICIENT                            1.0701945427753E+00
 TTTTTTTTTTTTTTTTTTTTTTTTTTTTTT MONMO3      TELAPSE      254.01 TCPU      251.52
 NUMERICALLY INTEGRATED DENSITY    527.9989089058
 TTTTTTTTTTTTTTTTTTTTTTTTTTTTTT NUMDFT      TELAPSE      261.14 TCPU      258.65
 CYC   9 ETOT(AU) -3.500330268508E+03 DETOT -4.65E-08 tst  7.37E-10 PX  1.40E-04

 == SCF ENDED - CONVERGENCE ON ENERGY      E(AU) -3.5003302685084E+03 CYCLES   9


 ENERGY EXPRESSION=HARTREE+FOCK EXCH*0.00000+(PBE        EXCH)*1.00000+PBE        CORR


 TOTAL ENERGY(DFT)(AU)(  9) -3.5003302685084E+03 DE-4.7E-08 tester 7.4E-10
 TTTTTTTTTTTTTTTTTTTTTTTTTTTTTT EDFT        TELAPSE      261.15 TCPU      258.66
 EIGENVECTORS IN FORTRAN UNIT 10
 TTTTTTTTTTTTTTTTTTTTTTTTTTTTTT END         TELAPSE      261.33 TCPU      258.84
 EEEEEEEEEE TERMINATION  DATE 20 11 2019 TIME 12:09:33.0
NODE    0 CPU TIME =       258.836
NODE    1 CPU TIME =       260.120
NODE    2 CPU TIME =       260.128
NODE    3 CPU TIME =       260.124
NODE    4 CPU TIME =       260.120
NODE    5 CPU TIME =       260.124
NODE    6 CPU TIME =       260.112
NODE    7 CPU TIME =       260.132
NODE    8 CPU TIME =       260.192
NODE    9 CPU TIME =       260.204
NODE   10 CPU TIME =       260.256
NODE   11 CPU TIME =       260.212
NODE   12 CPU TIME =       260.244
NODE   13 CPU TIME =       260.264
NODE   14 CPU TIME =       260.264
NODE   15 CPU TIME =       260.268
    TOTAL CPU TIME =      4161.604
Wed Nov 20 12:09:33 CET 2019
total 64572
-rw------- 1 casassa users   439876 Nov 20 12:06 DENSMAT1.BIN
-rw------- 1 casassa users   547292 Nov 20 12:07 DENSMAT2.BIN
-rw------- 1 casassa users     8938 Nov 20 12:06 EXTWALL1.DAT
-rw------- 1 casassa users    18858 Nov 20 12:07 EXTWALL2.DAT
-rw------- 1 casassa users    95770 Nov 20 12:07 FORCES.DAT
-rw------- 1 casassa users      340 Nov 20 12:07 HESSOPT.DAT
-rw-r--r-- 1 casassa users      401 Nov 20 12:05 INPUT
-rw------- 1 casassa users     7042 Nov 20 12:09 MULTIWALL.DAT
-rw------- 1 casassa users     3316 Nov 20 12:07 NANOJMOL.DAT
-rw------- 1 casassa users  1222529 Nov 20 12:07 OPTINFO.DAT
-rwxr-xr-x 1 casassa users 39795848 Nov 20 12:05 Pcrystal-836559
-rw------- 1 casassa users   312205 Nov 20 12:07 SCFOUT.LOG
-rw------- 1 casassa users        0 Nov 20 12:05 dffit3.dat
-rw------- 1 casassa users  3811896 Nov 20 12:09 diis_Fg
-rw------- 1 casassa users        0 Nov 20 12:05 diis_Sk.pe00
-rw------- 1 casassa users        0 Nov 20 12:05 diis_Sk.pe01
-rw------- 1 casassa users        0 Nov 20 12:05 diis_Sk.pe02
-rw------- 1 casassa users        0 Nov 20 12:05 diis_Sk.pe03
-rw------- 1 casassa users        0 Nov 20 12:05 diis_Sk.pe04
-rw------- 1 casassa users        0 Nov 20 12:05 diis_Sk.pe05
-rw------- 1 casassa users        0 Nov 20 12:05 diis_Sk.pe06
-rw------- 1 casassa users        0 Nov 20 12:05 diis_Sk.pe07
-rw------- 1 casassa users    15600 Nov 20 12:07 diis_err1.pe00
-rw------- 1 casassa users    15600 Nov 20 12:07 diis_err1.pe01
-rw------- 1 casassa users    15600 Nov 20 12:07 diis_err1.pe02
-rw------- 1 casassa users    15600 Nov 20 12:07 diis_err1.pe03
-rw------- 1 casassa users    15600 Nov 20 12:07 diis_err1.pe04
-rw------- 1 casassa users    15600 Nov 20 12:07 diis_err1.pe05
-rw------- 1 casassa users    15600 Nov 20 12:07 diis_err1.pe06
-rw------- 1 casassa users    15600 Nov 20 12:07 diis_err1.pe07
-rw------- 1 casassa users    13000 Nov 20 12:07 diis_err2.pe00
-rw------- 1 casassa users    13000 Nov 20 12:07 diis_err2.pe01
-rw------- 1 casassa users    13000 Nov 20 12:07 diis_err2.pe02
-rw------- 1 casassa users    13000 Nov 20 12:07 diis_err2.pe03
-rw------- 1 casassa users    13000 Nov 20 12:07 diis_err2.pe04
-rw------- 1 casassa users    13000 Nov 20 12:07 diis_err2.pe05
-rw------- 1 casassa users    13000 Nov 20 12:07 diis_err2.pe06
-rw------- 1 casassa users    13000 Nov 20 12:07 diis_err2.pe07
-rw------- 1 casassa users        0 Nov 20 12:05 fort.1.pe00
-rw------- 1 casassa users        0 Nov 20 12:05 fort.1.pe01
-rw------- 1 casassa users        0 Nov 20 12:05 fort.1.pe02
-rw------- 1 casassa users        0 Nov 20 12:05 fort.1.pe03
-rw------- 1 casassa users        0 Nov 20 12:05 fort.1.pe04
-rw------- 1 casassa users        0 Nov 20 12:05 fort.1.pe05
-rw------- 1 casassa users        0 Nov 20 12:05 fort.1.pe06
-rw------- 1 casassa users        0 Nov 20 12:05 fort.1.pe07
-rw------- 1 casassa users     7792 Nov 20 12:07 fort.10.pe00
-rw------- 1 casassa users     7792 Nov 20 12:07 fort.10.pe01
-rw------- 1 casassa users     7792 Nov 20 12:07 fort.10.pe02
-rw------- 1 casassa users     8312 Nov 20 12:07 fort.10.pe03
-rw------- 1 casassa users    18168 Nov 20 12:07 fort.10.pe04
-rw------- 1 casassa users    18168 Nov 20 12:07 fort.10.pe05
-rw------- 1 casassa users  1131016 Nov 20 12:09 fort.10.pe06
-rw------- 1 casassa users  1384456 Nov 20 12:09 fort.10.pe07
-rw------- 1 casassa users   423544 Nov 20 12:09 fort.11.pe00
-rw------- 1 casassa users   423544 Nov 20 12:09 fort.11.pe01
-rw------- 1 casassa users   423544 Nov 20 12:09 fort.11.pe02
-rw------- 1 casassa users   423544 Nov 20 12:09 fort.11.pe03
-rw------- 1 casassa users   423544 Nov 20 12:09 fort.11.pe04
-rw------- 1 casassa users   423544 Nov 20 12:09 fort.11.pe05
-rw------- 1 casassa users   423544 Nov 20 12:09 fort.11.pe06
-rw------- 1 casassa users   423544 Nov 20 12:09 fort.11.pe07
-rw------- 1 casassa users   276064 Nov 20 12:07 fort.12
-rw------- 1 casassa users        0 Nov 20 12:05 fort.17.pe01
-rw------- 1 casassa users        0 Nov 20 12:05 fort.17.pe02
-rw------- 1 casassa users        0 Nov 20 12:05 fort.17.pe03
-rw------- 1 casassa users        0 Nov 20 12:05 fort.17.pe04
-rw------- 1 casassa users        0 Nov 20 12:05 fort.17.pe05
-rw------- 1 casassa users        0 Nov 20 12:05 fort.17.pe06
-rw------- 1 casassa users        0 Nov 20 12:05 fort.17.pe07
-rw------- 1 casassa users        0 Nov 20 12:05 fort.18.pe00
-rw------- 1 casassa users        0 Nov 20 12:05 fort.18.pe01
-rw------- 1 casassa users        0 Nov 20 12:05 fort.18.pe02
-rw------- 1 casassa users        0 Nov 20 12:05 fort.18.pe03
-rw------- 1 casassa users        0 Nov 20 12:05 fort.18.pe04
-rw------- 1 casassa users        0 Nov 20 12:05 fort.18.pe05
-rw------- 1 casassa users        0 Nov 20 12:05 fort.18.pe06
-rw------- 1 casassa users        0 Nov 20 12:05 fort.18.pe07
-rw------- 1 casassa users        0 Nov 20 12:05 fort.19.pe00
-rw------- 1 casassa users        0 Nov 20 12:05 fort.19.pe01
-rw------- 1 casassa users        0 Nov 20 12:05 fort.19.pe02
-rw------- 1 casassa users        0 Nov 20 12:05 fort.19.pe03
-rw------- 1 casassa users        0 Nov 20 12:05 fort.19.pe04
-rw------- 1 casassa users        0 Nov 20 12:05 fort.19.pe05
-rw------- 1 casassa users        0 Nov 20 12:05 fort.19.pe06
-rw------- 1 casassa users        0 Nov 20 12:05 fort.19.pe07
-rw------- 1 casassa users   547292 Nov 20 12:07 fort.20
-rw------- 1 casassa users     9512 Nov 20 12:09 fort.21
-rw------- 1 casassa users        0 Nov 20 12:05 fort.28.pe00
-rw------- 1 casassa users        0 Nov 20 12:05 fort.28.pe01
-rw------- 1 casassa users        0 Nov 20 12:05 fort.28.pe02
-rw------- 1 casassa users        0 Nov 20 12:05 fort.28.pe03
-rw------- 1 casassa users        0 Nov 20 12:05 fort.28.pe04
-rw------- 1 casassa users        0 Nov 20 12:05 fort.28.pe05
-rw------- 1 casassa users        0 Nov 20 12:05 fort.28.pe06
-rw------- 1 casassa users        0 Nov 20 12:05 fort.28.pe07
-rw------- 1 casassa users        0 Nov 20 12:05 fort.29.pe00
-rw------- 1 casassa users        0 Nov 20 12:05 fort.29.pe01
-rw------- 1 casassa users        0 Nov 20 12:05 fort.29.pe02
-rw------- 1 casassa users        0 Nov 20 12:05 fort.29.pe03
-rw------- 1 casassa users        0 Nov 20 12:05 fort.29.pe04
-rw------- 1 casassa users        0 Nov 20 12:05 fort.29.pe05
-rw------- 1 casassa users        0 Nov 20 12:05 fort.29.pe06
-rw------- 1 casassa users        0 Nov 20 12:05 fort.29.pe07
-rw------- 1 casassa users        0 Nov 20 12:05 fort.3.pe00
-rw------- 1 casassa users        0 Nov 20 12:05 fort.3.pe01
-rw------- 1 casassa users        0 Nov 20 12:05 fort.3.pe02
-rw------- 1 casassa users        0 Nov 20 12:05 fort.3.pe03
-rw------- 1 casassa users        0 Nov 20 12:05 fort.3.pe04
-rw------- 1 casassa users        0 Nov 20 12:05 fort.3.pe05
-rw------- 1 casassa users        0 Nov 20 12:05 fort.3.pe06
-rw------- 1 casassa users        0 Nov 20 12:05 fort.3.pe07
-rw------- 1 casassa users    59832 Nov 20 12:07 fort.33
-rw------- 1 casassa users    18858 Nov 20 12:07 fort.34
-rw------- 1 casassa users        0 Nov 20 12:05 fort.38.pe00
-rw------- 1 casassa users        0 Nov 20 12:05 fort.38.pe01
-rw------- 1 casassa users        0 Nov 20 12:05 fort.38.pe02
-rw------- 1 casassa users        0 Nov 20 12:05 fort.38.pe03
-rw------- 1 casassa users        0 Nov 20 12:05 fort.38.pe04
-rw------- 1 casassa users        0 Nov 20 12:05 fort.38.pe05
-rw------- 1 casassa users        0 Nov 20 12:05 fort.38.pe06
-rw------- 1 casassa users        0 Nov 20 12:05 fort.38.pe07
-rw------- 1 casassa users        0 Nov 20 12:05 fort.40.pe00
-rw------- 1 casassa users        0 Nov 20 12:05 fort.40.pe01
-rw------- 1 casassa users        0 Nov 20 12:05 fort.40.pe02
-rw------- 1 casassa users        0 Nov 20 12:05 fort.40.pe03
-rw------- 1 casassa users        0 Nov 20 12:05 fort.40.pe04
-rw------- 1 casassa users        0 Nov 20 12:05 fort.40.pe05
-rw------- 1 casassa users        0 Nov 20 12:05 fort.40.pe06
-rw------- 1 casassa users        0 Nov 20 12:05 fort.40.pe07
-rw------- 1 casassa users        0 Nov 20 12:05 fort.61.pe00
-rw------- 1 casassa users        0 Nov 20 12:05 fort.61.pe01
-rw------- 1 casassa users        0 Nov 20 12:05 fort.61.pe02
-rw------- 1 casassa users        0 Nov 20 12:05 fort.61.pe03
-rw------- 1 casassa users        0 Nov 20 12:05 fort.61.pe04
-rw------- 1 casassa users        0 Nov 20 12:05 fort.61.pe05
-rw------- 1 casassa users        0 Nov 20 12:05 fort.61.pe06
-rw------- 1 casassa users        0 Nov 20 12:05 fort.61.pe07
-rw------- 1 casassa users    69728 Nov 20 12:07 fort.62.pe00
-rw------- 1 casassa users    69728 Nov 20 12:07 fort.62.pe01
-rw------- 1 casassa users    69728 Nov 20 12:07 fort.62.pe02
-rw------- 1 casassa users    75040 Nov 20 12:07 fort.62.pe03
-rw------- 1 casassa users   122592 Nov 20 12:07 fort.62.pe04
-rw------- 1 casassa users   122592 Nov 20 12:07 fort.62.pe05
-rw------- 1 casassa users    13952 Nov 20 12:07 fort.62.pe06
-rw------- 1 casassa users    14592 Nov 20 12:07 fort.62.pe07
-rw------- 1 casassa users     7792 Nov 20 12:07 fort.8.pe00
-rw------- 1 casassa users     7792 Nov 20 12:07 fort.8.pe01
-rw------- 1 casassa users     7792 Nov 20 12:07 fort.8.pe02
-rw------- 1 casassa users     8312 Nov 20 12:07 fort.8.pe03
-rw------- 1 casassa users    18168 Nov 20 12:07 fort.8.pe04
-rw------- 1 casassa users    18168 Nov 20 12:07 fort.8.pe05
-rw------- 1 casassa users  1131016 Nov 20 12:09 fort.8.pe06
-rw------- 1 casassa users  1384456 Nov 20 12:09 fort.8.pe07
-rw------- 1 casassa users        0 Nov 20 12:05 fort.82.pe00
-rw------- 1 casassa users        0 Nov 20 12:05 fort.82.pe01
-rw------- 1 casassa users        0 Nov 20 12:05 fort.82.pe02
-rw------- 1 casassa users        0 Nov 20 12:05 fort.82.pe03
-rw------- 1 casassa users        0 Nov 20 12:05 fort.82.pe04
-rw------- 1 casassa users        0 Nov 20 12:05 fort.82.pe05
-rw------- 1 casassa users        0 Nov 20 12:05 fort.82.pe06
-rw------- 1 casassa users        0 Nov 20 12:05 fort.82.pe07
-rw------- 1 casassa users        0 Nov 20 12:05 fort.83.pe00
-rw------- 1 casassa users        0 Nov 20 12:05 fort.83.pe01
-rw------- 1 casassa users        0 Nov 20 12:05 fort.83.pe02
-rw------- 1 casassa users        0 Nov 20 12:05 fort.83.pe03
-rw------- 1 casassa users        0 Nov 20 12:05 fort.83.pe04
-rw------- 1 casassa users        0 Nov 20 12:05 fort.83.pe05
-rw------- 1 casassa users        0 Nov 20 12:05 fort.83.pe06
-rw------- 1 casassa users        0 Nov 20 12:05 fort.83.pe07
-rw------- 1 casassa users  1471252 Nov 20 12:09 fort.9
-rw------- 1 casassa users   493960 Nov 20 12:09 fort.95.pe00
-rw------- 1 casassa users   493960 Nov 20 12:09 fort.95.pe01
-rw------- 1 casassa users   493960 Nov 20 12:09 fort.95.pe02
-rw------- 1 casassa users   493960 Nov 20 12:09 fort.95.pe03
-rw------- 1 casassa users   493960 Nov 20 12:09 fort.95.pe04
-rw------- 1 casassa users   493960 Nov 20 12:09 fort.95.pe05
-rw------- 1 casassa users   493960 Nov 20 12:09 fort.95.pe06
-rw------- 1 casassa users   493960 Nov 20 12:09 fort.95.pe07
-rw------- 1 casassa users  3829113 Nov 20 12:09 fort.98
-rw------- 1 casassa users    18858 Nov 20 12:06 optc001
-rw------- 1 casassa users    18858 Nov 20 12:06 optc002
-rw------- 1 casassa users    18858 Nov 20 12:06 optc003
-rw------- 1 casassa users    18858 Nov 20 12:06 optc004
-rw------- 1 casassa users    18858 Nov 20 12:07 optc005
-rw------- 1 casassa users    18858 Nov 20 12:07 optc006
-rw------- 1 casassa users    18858 Nov 20 12:07 optc007
-rw------- 1 casassa users    18858 Nov 20 12:07 optc008
-rw------- 1 casassa users     8938 Nov 20 12:06 optc009
-rw------- 1 casassa users     8938 Nov 20 12:06 optc010
