[Molden Format]
[Atoms] AU
  C     1    6     0.0000000000    0.0000000000    2.9284072500        
  C     2    6     1.9949058600    0.0000000000    1.2848526000        
  C     3    6    -1.9949058600    0.0000000000    1.2848526000        
  C     4    6     2.2202828800    0.0000000000   -1.2984758500        
  C     5    6    -2.2202828800    0.0000000000   -1.2984758500        
  C     6    6     0.0000000100    0.0000000000   -2.7124614000        
  H     7    1    -0.0000000100    0.0000000000    4.9463445300        
  H     8    1     4.0530832800    0.0000000000   -2.1664321400        
  H     9    1    -4.0530832800    0.0000000000   -2.1664321400        
  H    10    1    -0.0000000100    0.0000000000   -4.7461619000        
[5D]
[7F]
[GTO]
  1  0
   s    10 1.00
  0.823600D+04  0.531000D-03
  0.123500D+04  0.410800D-02
  0.280800D+03  0.210870D-01
  0.792700D+02  0.818530D-01
  0.255900D+02  0.234817D+00
  0.899700D+01  0.434401D+00
  0.331900D+01  0.346129D+00
  0.905900D+00  0.393780D-01
  0.364300D+00 -0.898300D-02
  0.128500D+00  0.238500D-02
   s    10 1.00
  0.823600D+04 -0.113000D-03
  0.123500D+04 -0.878000D-03
  0.280800D+03 -0.454000D-02
  0.792700D+02 -0.181330D-01
  0.255900D+02 -0.557600D-01
  0.899700D+01 -0.126895D+00
  0.331900D+01 -0.170352D+00
  0.905900D+00  0.140382D+00
  0.364300D+00  0.598684D+00
  0.128500D+00  0.395389D+00
   s     1 1.00
  0.905900D+00  0.100000D+01
   s     1 1.00
  0.128500D+00  0.100000D+01
   p     5 1.00
  0.187100D+02  0.140310D-01
  0.413300D+01  0.868660D-01
  0.120000D+01  0.290216D+00
  0.382700D+00  0.501008D+00
  0.120900D+00  0.343406D+00
   p     1 1.00
  0.382700D+00  0.100000D+01
   p     1 1.00
  0.120900D+00  0.100000D+01
   d     1 1.00
  0.109700D+01  0.100000D+01
   d     1 1.00
  0.318000D+00  0.100000D+01
   f     1 1.00
  0.761000D+00  0.100000D+01
  
  2  0
   s    10 1.00
  0.823600D+04  0.531000D-03
  0.123500D+04  0.410800D-02
  0.280800D+03  0.210870D-01
  0.792700D+02  0.818530D-01
  0.255900D+02  0.234817D+00
  0.899700D+01  0.434401D+00
  0.331900D+01  0.346129D+00
  0.905900D+00  0.393780D-01
  0.364300D+00 -0.898300D-02
  0.128500D+00  0.238500D-02
   s    10 1.00
  0.823600D+04 -0.113000D-03
  0.123500D+04 -0.878000D-03
  0.280800D+03 -0.454000D-02
  0.792700D+02 -0.181330D-01
  0.255900D+02 -0.557600D-01
  0.899700D+01 -0.126895D+00
  0.331900D+01 -0.170352D+00
  0.905900D+00  0.140382D+00
  0.364300D+00  0.598684D+00
  0.128500D+00  0.395389D+00
   s     1 1.00
  0.905900D+00  0.100000D+01
   s     1 1.00
  0.128500D+00  0.100000D+01
   p     5 1.00
  0.187100D+02  0.140310D-01
  0.413300D+01  0.868660D-01
  0.120000D+01  0.290216D+00
  0.382700D+00  0.501008D+00
  0.120900D+00  0.343406D+00
   p     1 1.00
  0.382700D+00  0.100000D+01
   p     1 1.00
  0.120900D+00  0.100000D+01
   d     1 1.00
  0.109700D+01  0.100000D+01
   d     1 1.00
  0.318000D+00  0.100000D+01
   f     1 1.00
  0.761000D+00  0.100000D+01
  
  3  0
   s    10 1.00
  0.823600D+04  0.531000D-03
  0.123500D+04  0.410800D-02
  0.280800D+03  0.210870D-01
  0.792700D+02  0.818530D-01
  0.255900D+02  0.234817D+00
  0.899700D+01  0.434401D+00
  0.331900D+01  0.346129D+00
  0.905900D+00  0.393780D-01
  0.364300D+00 -0.898300D-02
  0.128500D+00  0.238500D-02
   s    10 1.00
  0.823600D+04 -0.113000D-03
  0.123500D+04 -0.878000D-03
  0.280800D+03 -0.454000D-02
  0.792700D+02 -0.181330D-01
  0.255900D+02 -0.557600D-01
  0.899700D+01 -0.126895D+00
  0.331900D+01 -0.170352D+00
  0.905900D+00  0.140382D+00
  0.364300D+00  0.598684D+00
  0.128500D+00  0.395389D+00
   s     1 1.00
  0.905900D+00  0.100000D+01
   s     1 1.00
  0.128500D+00  0.100000D+01
   p     5 1.00
  0.187100D+02  0.140310D-01
  0.413300D+01  0.868660D-01
  0.120000D+01  0.290216D+00
  0.382700D+00  0.501008D+00
  0.120900D+00  0.343406D+00
   p     1 1.00
  0.382700D+00  0.100000D+01
   p     1 1.00
  0.120900D+00  0.100000D+01
   d     1 1.00
  0.109700D+01  0.100000D+01
   d     1 1.00
  0.318000D+00  0.100000D+01
   f     1 1.00
  0.761000D+00  0.100000D+01
  
  4  0
   s    10 1.00
  0.823600D+04  0.531000D-03
  0.123500D+04  0.410800D-02
  0.280800D+03  0.210870D-01
  0.792700D+02  0.818530D-01
  0.255900D+02  0.234817D+00
  0.899700D+01  0.434401D+00
  0.331900D+01  0.346129D+00
  0.905900D+00  0.393780D-01
  0.364300D+00 -0.898300D-02
  0.128500D+00  0.238500D-02
   s    10 1.00
  0.823600D+04 -0.113000D-03
  0.123500D+04 -0.878000D-03
  0.280800D+03 -0.454000D-02
  0.792700D+02 -0.181330D-01
  0.255900D+02 -0.557600D-01
  0.899700D+01 -0.126895D+00
  0.331900D+01 -0.170352D+00
  0.905900D+00  0.140382D+00
  0.364300D+00  0.598684D+00
  0.128500D+00  0.395389D+00
   s     1 1.00
  0.905900D+00  0.100000D+01
   s     1 1.00
  0.128500D+00  0.100000D+01
   p     5 1.00
  0.187100D+02  0.140310D-01
  0.413300D+01  0.868660D-01
  0.120000D+01  0.290216D+00
  0.382700D+00  0.501008D+00
  0.120900D+00  0.343406D+00
   p     1 1.00
  0.382700D+00  0.100000D+01
   p     1 1.00
  0.120900D+00  0.100000D+01
   d     1 1.00
  0.109700D+01  0.100000D+01
   d     1 1.00
  0.318000D+00  0.100000D+01
   f     1 1.00
  0.761000D+00  0.100000D+01
  
  5  0
   s    10 1.00
  0.823600D+04  0.531000D-03
  0.123500D+04  0.410800D-02
  0.280800D+03  0.210870D-01
  0.792700D+02  0.818530D-01
  0.255900D+02  0.234817D+00
  0.899700D+01  0.434401D+00
  0.331900D+01  0.346129D+00
  0.905900D+00  0.393780D-01
  0.364300D+00 -0.898300D-02
  0.128500D+00  0.238500D-02
   s    10 1.00
  0.823600D+04 -0.113000D-03
  0.123500D+04 -0.878000D-03
  0.280800D+03 -0.454000D-02
  0.792700D+02 -0.181330D-01
  0.255900D+02 -0.557600D-01
  0.899700D+01 -0.126895D+00
  0.331900D+01 -0.170352D+00
  0.905900D+00  0.140382D+00
  0.364300D+00  0.598684D+00
  0.128500D+00  0.395389D+00
   s     1 1.00
  0.905900D+00  0.100000D+01
   s     1 1.00
  0.128500D+00  0.100000D+01
   p     5 1.00
  0.187100D+02  0.140310D-01
  0.413300D+01  0.868660D-01
  0.120000D+01  0.290216D+00
  0.382700D+00  0.501008D+00
  0.120900D+00  0.343406D+00
   p     1 1.00
  0.382700D+00  0.100000D+01
   p     1 1.00
  0.120900D+00  0.100000D+01
   d     1 1.00
  0.109700D+01  0.100000D+01
   d     1 1.00
  0.318000D+00  0.100000D+01
   f     1 1.00
  0.761000D+00  0.100000D+01
  
  6  0
   s    10 1.00
  0.823600D+04  0.531000D-03
  0.123500D+04  0.410800D-02
  0.280800D+03  0.210870D-01
  0.792700D+02  0.818530D-01
  0.255900D+02  0.234817D+00
  0.899700D+01  0.434401D+00
  0.331900D+01  0.346129D+00
  0.905900D+00  0.393780D-01
  0.364300D+00 -0.898300D-02
  0.128500D+00  0.238500D-02
   s    10 1.00
  0.823600D+04 -0.113000D-03
  0.123500D+04 -0.878000D-03
  0.280800D+03 -0.454000D-02
  0.792700D+02 -0.181330D-01
  0.255900D+02 -0.557600D-01
  0.899700D+01 -0.126895D+00
  0.331900D+01 -0.170352D+00
  0.905900D+00  0.140382D+00
  0.364300D+00  0.598684D+00
  0.128500D+00  0.395389D+00
   s     1 1.00
  0.905900D+00  0.100000D+01
   s     1 1.00
  0.128500D+00  0.100000D+01
   p     5 1.00
  0.187100D+02  0.140310D-01
  0.413300D+01  0.868660D-01
  0.120000D+01  0.290216D+00
  0.382700D+00  0.501008D+00
  0.120900D+00  0.343406D+00
   p     1 1.00
  0.382700D+00  0.100000D+01
   p     1 1.00
  0.120900D+00  0.100000D+01
   d     1 1.00
  0.109700D+01  0.100000D+01
   d     1 1.00
  0.318000D+00  0.100000D+01
   f     1 1.00
  0.761000D+00  0.100000D+01
  
  7  0
   s     5 1.00
  0.338700D+02  0.606800D-02
  0.509500D+01  0.453080D-01
  0.115900D+01  0.202822D+00
  0.325800D+00  0.503903D+00
  0.102700D+00  0.383421D+00
   s     1 1.00
  0.325800D+00  0.100000D+01
   s     1 1.00
  0.102700D+00  0.100000D+01
   p     1 1.00
  0.140700D+01  0.100000D+01
   p     1 1.00
  0.388000D+00  0.100000D+01
  
  8  0
   s     5 1.00
  0.338700D+02  0.606800D-02
  0.509500D+01  0.453080D-01
  0.115900D+01  0.202822D+00
  0.325800D+00  0.503903D+00
  0.102700D+00  0.383421D+00
   s     1 1.00
  0.325800D+00  0.100000D+01
   s     1 1.00
  0.102700D+00  0.100000D+01
   p     1 1.00
  0.140700D+01  0.100000D+01
   p     1 1.00
  0.388000D+00  0.100000D+01
  
  9  0
   s     5 1.00
  0.338700D+02  0.606800D-02
  0.509500D+01  0.453080D-01
  0.115900D+01  0.202822D+00
  0.325800D+00  0.503903D+00
  0.102700D+00  0.383421D+00
   s     1 1.00
  0.325800D+00  0.100000D+01
   s     1 1.00
  0.102700D+00  0.100000D+01
   p     1 1.00
  0.140700D+01  0.100000D+01
   p     1 1.00
  0.388000D+00  0.100000D+01
  
 10  0
   s     5 1.00
  0.338700D+02  0.606800D-02
  0.509500D+01  0.453080D-01
  0.115900D+01  0.202822D+00
  0.325800D+00  0.503903D+00
  0.102700D+00  0.383421D+00
   s     1 1.00
  0.325800D+00  0.100000D+01
   s     1 1.00
  0.102700D+00  0.100000D+01
   p     1 1.00
  0.140700D+01  0.100000D+01
   p     1 1.00
  0.388000D+00  0.100000D+01
  
[MO]
 Sym= __1_A1_
 Ene=  0.000000000000000E+000
 Spin= Alpha
 Occup=    2.00000000000000     
                     1  0.991156162657693     
                     2  2.222635494150796E-003
                     3  2.199918509105908E-003
                     4  6.357344609777965E-003
                     5  0.000000000000000E+000
                     6  0.000000000000000E+000
                     7 -2.652549698403744E-004
                     8  0.000000000000000E+000
                     9  0.000000000000000E+000
                    10 -3.688430559107009E-003
                    11  0.000000000000000E+000
                    12  0.000000000000000E+000
                    13 -4.052887499711365E-003
                    14  5.273572996498412E-004
                    15  0.000000000000000E+000
                    16  0.000000000000000E+000
                    17  5.461298397189924E-004
                    18  0.000000000000000E+000
                    19 -3.003544838952255E-003
                    20  0.000000000000000E+000
                    21  0.000000000000000E+000
                    22  1.508504954551140E-003
                    23  0.000000000000000E+000
                    24 -5.981880521797993E-004
                    25  0.000000000000000E+000
                    26  0.000000000000000E+000
                    27 -5.507927258332038E-004
                    28  0.000000000000000E+000
                    29  0.000000000000000E+000
                    30  0.000000000000000E+000
                    31  8.888421259412141E-002
                    32 -3.206715180065086E-004
                    33  6.951702954387791E-004
                    34 -7.429397563171097E-003
                    35 -5.346087956015339E-004
                    36  0.000000000000000E+000
                    37  8.233418210339170E-004
                    38  4.854600656918236E-004
                    39  0.000000000000000E+000
                    40 -2.341750098533061E-003
                    41  1.936932868649873E-003
                    42  0.000000000000000E+000
                    43 -5.507904452001391E-004
                    44  3.224090328044912E-005
                    45  1.218283152061409E-004
                    46  0.000000000000000E+000
                    47 -4.526960028353356E-005
                    48  0.000000000000000E+000
                    49 -9.319597007759893E-004
                    50  1.676115535138619E-003
                    51  0.000000000000000E+000
                    52 -1.992040784222517E-004
                    53  0.000000000000000E+000
                    54 -7.923667050313656E-005
                    55  3.236785640283566E-004
                    56  0.000000000000000E+000
                    57 -2.880848082152500E-004
                    58  0.000000000000000E+000
                    59 -5.888863654452581E-005
                    60  0.000000000000000E+000
                    61  8.888421259412141E-002
                    62 -3.206715180065086E-004
                    63  6.951702954387791E-004
                    64 -7.429397563171097E-003
                    65  5.346087956015339E-004
                    66  0.000000000000000E+000
                    67  8.233418210339170E-004
                    68 -4.854600656918236E-004
                    69  0.000000000000000E+000
                    70 -2.341750098533061E-003
                    71 -1.936932868649873E-003
                    72  0.000000000000000E+000
                    73 -5.507904452001391E-004
                    74  3.224090328044912E-005
                    75 -1.218283152061409E-004
                    76  0.000000000000000E+000
                    77 -4.526960028353356E-005
                    78  0.000000000000000E+000
                    79 -9.319597007759893E-004
                    80 -1.676115535138619E-003
                    81  0.000000000000000E+000
                    82 -1.992040784222517E-004
                    83  0.000000000000000E+000
                    84 -7.923667050313656E-005
                    85 -3.236785640283566E-004
                    86  0.000000000000000E+000
                    87 -2.880848082152500E-004
                    88  0.000000000000000E+000
                    89  5.888863654452581E-005
                    90  0.000000000000000E+000
                    91  2.871591038425450E-003
                    92  4.362272908439173E-005
                    93  1.398139383992862E-004
                    94  3.407905223254333E-003
                    95 -7.487170306031204E-005
                    96  0.000000000000000E+000
                    97  2.827365584472302E-004
                    98  1.113399012279056E-004
                    99  0.000000000000000E+000
                   100 -4.684396464665226E-004
                   101 -1.241457168211408E-003
                   102  0.000000000000000E+000
                   103  5.741417411734510E-004
                   104 -4.772855931646483E-005
                   105 -8.694435473946779E-005
                   106  0.000000000000000E+000
                   107 -1.312000845312053E-005
                   108  0.000000000000000E+000
                   109 -5.936497822110149E-006
                   110  1.050815421119738E-003
                   111  0.000000000000000E+000
                   112  4.563951982682954E-006
                   113  0.000000000000000E+000
                   114  4.592500330985518E-005
                   115 -2.801797118460171E-005
                   116  0.000000000000000E+000
                   117 -8.688221547949042E-005
                   118  0.000000000000000E+000
                   119 -3.436773590040664E-007
                   120  0.000000000000000E+000
                   121  2.871591038425450E-003
                   122  4.362272908439173E-005
                   123  1.398139383992862E-004
                   124  3.407905223254333E-003
                   125  7.487170306031204E-005
                   126  0.000000000000000E+000
                   127  2.827365584472302E-004
                   128 -1.113399012279056E-004
                   129  0.000000000000000E+000
                   130 -4.684396464665226E-004
                   131  1.241457168211408E-003
                   132  0.000000000000000E+000
                   133  5.741417411734510E-004
                   134 -4.772855931646483E-005
                   135  8.694435473946779E-005
                   136  0.000000000000000E+000
                   137 -1.312000845312053E-005
                   138  0.000000000000000E+000
                   139 -5.936497822110149E-006
                   140 -1.050815421119738E-003
                   141  0.000000000000000E+000
                   142  4.563951982682954E-006
                   143  0.000000000000000E+000
                   144  4.592500330985518E-005
                   145  2.801797118460171E-005
                   146  0.000000000000000E+000
                   147 -8.688221547949042E-005
                   148  0.000000000000000E+000
                   149  3.436773590040664E-007
                   150  0.000000000000000E+000
                   151 -6.621270785092126E-004
                   152 -9.445037611770779E-004
                   153  4.756826330223600E-005
                   154 -2.703471667482327E-003
                   155  0.000000000000000E+000
                   156  0.000000000000000E+000
                   157 -5.068364884330328E-006
                   158  0.000000000000000E+000
                   159  0.000000000000000E+000
                   160 -4.131011296351186E-004
                   161  0.000000000000000E+000
                   162  0.000000000000000E+000
                   163 -1.721003676776769E-003
                   164  1.861183560820426E-005
                   165  0.000000000000000E+000
                   166  0.000000000000000E+000
                   167 -4.584941145443328E-005
                   168  0.000000000000000E+000
                   169  5.958744961035793E-004
                   170  0.000000000000000E+000
                   171  0.000000000000000E+000
                   172 -3.129159610216042E-004
                   173  0.000000000000000E+000
                   174 -7.167865878216467E-006
                   175  0.000000000000000E+000
                   176  0.000000000000000E+000
                   177 -7.278293514127748E-006
                   178  0.000000000000000E+000
                   179  0.000000000000000E+000
                   180  0.000000000000000E+000
                   181  4.957109904815233E-004
                   182  4.717925837033771E-003
                   183  6.083919048093948E-004
                   184  0.000000000000000E+000
                   185  0.000000000000000E+000
                   186  2.730196510312808E-004
                   187  0.000000000000000E+000
                   188  0.000000000000000E+000
                   189 -1.884503878970949E-003
                   190 -6.479348945157748E-005
                   191  4.843646687786345E-004
                   192  2.392416106300691E-004
                   193  2.390278119878002E-005
                   194  0.000000000000000E+000
                   195 -1.330434995219125E-005
                   196 -1.899998629316622E-004
                   197  0.000000000000000E+000
                   198 -1.177076139965442E-004
                   199 -6.479348945157748E-005
                   200  4.843646687786345E-004
                   201  2.392416106300691E-004
                   202 -2.390278119878002E-005
                   203  0.000000000000000E+000
                   204 -1.330434995219125E-005
                   205  1.899998629316622E-004
                   206  0.000000000000000E+000
                   207 -1.177076139965442E-004
                   208 -6.797881089866593E-005
                   209 -6.393572004882640E-004
                   210 -4.127594385020510E-004
                   211  0.000000000000000E+000
                   212  0.000000000000000E+000
                   213 -1.697451308473520E-005
                   214  0.000000000000000E+000
                   215  0.000000000000000E+000
                   216 -1.635685956099183E-004
 Sym= __2_A1_
 Ene=  0.000000000000000E+000
 Spin= Alpha
 Occup=    2.00000000000000     
                     1  0.126327623054473     
                     2 -2.977329842853602E-004
                     3 -3.260197583238223E-004
                     4  9.779151329726688E-003
                     5  0.000000000000000E+000
                     6  0.000000000000000E+000
                     7  8.518344274763372E-004
                     8  0.000000000000000E+000
                     9  0.000000000000000E+000
                    10 -1.075770170457525E-003
                    11  0.000000000000000E+000
                    12  0.000000000000000E+000
                    13 -4.455560174967016E-003
                    14  1.268013205076260E-005
                    15  0.000000000000000E+000
                    16  0.000000000000000E+000
                    17  2.136750879327842E-004
                    18  0.000000000000000E+000
                    19  1.796980129400016E-003
                    20  0.000000000000000E+000
                    21  0.000000000000000E+000
                    22 -7.552396915186078E-005
                    23  0.000000000000000E+000
                    24 -1.374055623752894E-004
                    25  0.000000000000000E+000
                    26  0.000000000000000E+000
                    27 -4.151617994735004E-004
                    28  0.000000000000000E+000
                    29  0.000000000000000E+000
                    30  0.000000000000000E+000
                    31 -0.698796427329674     
                    32 -7.168023260567373E-004
                    33 -1.449160166381393E-003
                    34 -6.840248110402749E-003
                    35  7.482830876802418E-004
                    36  0.000000000000000E+000
                    37  6.824303788088435E-004
                    38  1.090747716417326E-003
                    39  0.000000000000000E+000
                    40  2.242677385143806E-004
                    41  2.345724764138845E-003
                    42  0.000000000000000E+000
                    43  1.342780224061066E-004
                    44 -4.189398206048526E-004
                    45  3.953717985255345E-004
                    46  0.000000000000000E+000
                    47 -2.408983813791018E-004
                    48  0.000000000000000E+000
                    49  5.566620158942288E-004
                    50 -6.022380746276756E-004
                    51  0.000000000000000E+000
                    52 -3.569830539992056E-004
                    53  0.000000000000000E+000
                    54 -2.448502095721564E-004
                    55  6.594038907887095E-005
                    56  0.000000000000000E+000
                    57 -1.940736492068222E-004
                    58  0.000000000000000E+000
                    59 -1.485459430647325E-004
                    60  0.000000000000000E+000
                    61 -0.698796427329674     
                    62 -7.168023260567373E-004
                    63 -1.449160166381393E-003
                    64 -6.840248110402749E-003
                    65 -7.482830876802418E-004
                    66  0.000000000000000E+000
                    67  6.824303788088435E-004
                    68 -1.090747716417326E-003
                    69  0.000000000000000E+000
                    70  2.242677385143806E-004
                    71 -2.345724764138845E-003
                    72  0.000000000000000E+000
                    73  1.342780224061066E-004
                    74 -4.189398206048526E-004
                    75 -3.953717985255345E-004
                    76  0.000000000000000E+000
                    77 -2.408983813791018E-004
                    78  0.000000000000000E+000
                    79  5.566620158942288E-004
                    80  6.022380746276756E-004
                    81  0.000000000000000E+000
                    82 -3.569830539992056E-004
                    83  0.000000000000000E+000
                    84 -2.448502095721564E-004
                    85 -6.594038907887095E-005
                    86  0.000000000000000E+000
                    87 -1.940736492068222E-004
                    88  0.000000000000000E+000
                    89  1.485459430647325E-004
                    90  0.000000000000000E+000
                    91 -4.973558205323041E-002
                    92 -5.213777481216212E-004
                    93 -3.576011249360115E-004
                    94  5.334195244162341E-003
                    95  8.209021059503221E-005
                    96  0.000000000000000E+000
                    97 -7.625747241739994E-004
                    98 -2.515572757095764E-004
                    99  0.000000000000000E+000
                   100  3.887598765089999E-004
                   101 -2.358080230482569E-003
                   102  0.000000000000000E+000
                   103  1.165558795831955E-003
                   104  4.808676889619965E-005
                   105  4.005941345500653E-005
                   106  0.000000000000000E+000
                   107  1.308645214749876E-005
                   108  0.000000000000000E+000
                   109  2.502075314814791E-004
                   110 -9.472899436574155E-004
                   111  0.000000000000000E+000
                   112  2.656326806484168E-004
                   113  0.000000000000000E+000
                   114 -2.149466646689917E-004
                   115 -1.381050413341833E-004
                   116  0.000000000000000E+000
                   117  6.169480582049782E-007
                   118  0.000000000000000E+000
                   119  9.363788151353028E-006
                   120  0.000000000000000E+000
                   121 -4.973558205323041E-002
                   122 -5.213777481216212E-004
                   123 -3.576011249360115E-004
                   124  5.334195244162341E-003
                   125 -8.209021059503221E-005
                   126  0.000000000000000E+000
                   127 -7.625747241739994E-004
                   128  2.515572757095764E-004
                   129  0.000000000000000E+000
                   130  3.887598765089999E-004
                   131  2.358080230482569E-003
                   132  0.000000000000000E+000
                   133  1.165558795831955E-003
                   134  4.808676889619965E-005
                   135 -4.005941345500653E-005
                   136  0.000000000000000E+000
                   137  1.308645214749876E-005
                   138  0.000000000000000E+000
                   139  2.502075314814791E-004
                   140  9.472899436574155E-004
                   141  0.000000000000000E+000
                   142  2.656326806484168E-004
                   143  0.000000000000000E+000
                   144 -2.149466646689917E-004
                   145  1.381050413341833E-004
                   146  0.000000000000000E+000
                   147  6.169480582049782E-007
                   148  0.000000000000000E+000
                   149 -9.363788151353028E-006
                   150  0.000000000000000E+000
                   151 -2.813927692031261E-002
                   152  2.822470723216291E-004
                   153  7.353569691394324E-005
                   154 -6.000817738988063E-003
                   155  0.000000000000000E+000
                   156  0.000000000000000E+000
                   157  4.073232871138301E-005
                   158  0.000000000000000E+000
                   159  0.000000000000000E+000
                   160  5.079458207894131E-004
                   161  0.000000000000000E+000
                   162  0.000000000000000E+000
                   163 -1.554524684204181E-003
                   164  6.922744224607344E-005
                   165  0.000000000000000E+000
                   166  0.000000000000000E+000
                   167 -4.328150433825512E-006
                   168  0.000000000000000E+000
                   169 -8.674541199107243E-004
                   170  0.000000000000000E+000
                   171  0.000000000000000E+000
                   172 -8.365789365117802E-005
                   173  0.000000000000000E+000
                   174 -2.755707486482373E-005
                   175  0.000000000000000E+000
                   176  0.000000000000000E+000
                   177 -4.762358236404146E-005
                   178  0.000000000000000E+000
                   179  0.000000000000000E+000
                   180  0.000000000000000E+000
                   181 -5.446169113626243E-004
                   182 -9.862896993668056E-004
                   183  1.186912120532485E-003
                   184  0.000000000000000E+000
                   185  0.000000000000000E+000
                   186  3.317066599331223E-005
                   187  0.000000000000000E+000
                   188  0.000000000000000E+000
                   189  3.254336547338411E-004
                   190 -3.382761438722200E-004
                   191 -4.482044792146677E-004
                   192  7.507283059087597E-004
                   193 -1.097132971328184E-005
                   194  0.000000000000000E+000
                   195  4.759793038930705E-006
                   196  3.117605847188647E-004
                   197  0.000000000000000E+000
                   198  1.035515784303910E-004
                   199 -3.382761438722200E-004
                   200 -4.482044792146677E-004
                   201  7.507283059087597E-004
                   202  1.097132971328184E-005
                   203  0.000000000000000E+000
                   204  4.759793038930705E-006
                   205 -3.117605847188647E-004
                   206  0.000000000000000E+000
                   207  1.035515784303910E-004
                   208 -5.634647202155676E-005
                   209  1.370324227503458E-003
                   210 -7.366366350015474E-005
                   211  0.000000000000000E+000
                   212  0.000000000000000E+000
                   213  9.926811007538686E-006
                   214  0.000000000000000E+000
                   215  0.000000000000000E+000
                   216  5.077671044820689E-004
 Sym= __3_A1_
 Ene=  0.000000000000000E+000
 Spin= Alpha
 Occup=    2.00000000000000     
                     1 -4.276082315843503E-003
                     2  6.103944948540864E-004
                     3 -3.854802628421051E-005
                     4  4.343436312473778E-003
                     5  0.000000000000000E+000
                     6  0.000000000000000E+000
                     7  6.545814831073847E-005
                     8  0.000000000000000E+000
                     9  0.000000000000000E+000
                    10 -5.666171627009400E-004
                    11  0.000000000000000E+000
                    12  0.000000000000000E+000
                    13 -2.279914918600664E-003
                    14 -1.905353784790586E-005