[Molden Format]
[Atoms] (Angs)
Na     1    11      0.6261768881E-15    0.6261768881E-15    0.6261768881E-15
Na     2    11      0.2820050000E+01    0.2820050000E+01    0.6261768881E-15
Na     3    11      0.2820050000E+01    0.6261768881E-15    0.2820050000E+01
Na     4    11      0.0000000000E+00    0.2820050000E+01    0.2820050000E+01
Cl     5    17      0.6261768881E-15    0.6261768881E-15    0.2820050000E+01
Cl     6    17      0.2820050000E+01    0.2820050000E+01    0.2820050000E+01
Cl     7    17      0.2820050000E+01    0.6261768881E-15    0.0000000000E+00
Cl     8    17      0.0000000000E+00    0.2820050000E+01    0.0000000000E+00
[Cell] (Angs)
      5.64010000      5.64010000      5.64010000       90.0000     90.0000     90.0000
[5D]
[7F]
[GTO]
   1
s       5
     4098.20039080       -5.17582905
      616.49374031       -9.32213001
      139.96644001      -13.65010979
       39.07344105      -13.13468458
       11.92984720       -4.64101699
s       3
       20.65996603        1.44066275
        1.98388610       -1.62956898
        0.64836324       -0.64931235
s       1
        0.38937519        0.85440242
s       1
        0.12003446        0.35348071
p       5
       75.40186202       11.88942030
       17.27481898       12.17713359
        5.18423474        8.46369878
        1.66012120        3.22032584
        0.51232529        0.48715464
p       1
        0.12006490        0.24501143
d       1
        0.12227064        0.10120441
 
   2
s       5
     4098.20039080       -5.17582905
      616.49374031       -9.32213001
      139.96644001      -13.65010979
       39.07344105      -13.13468458
       11.92984720       -4.64101699
s       3
       20.65996603        1.44066275
        1.98388610       -1.62956898
        0.64836324       -0.64931235
s       1
        0.38937519        0.85440242
s       1
        0.12003446        0.35348071
p       5
       75.40186202       11.88942030
       17.27481898       12.17713359
        5.18423474        8.46369878
        1.66012120        3.22032584
        0.51232529        0.48715464
p       1
        0.12006490        0.24501143
d       1
        0.12227064        0.10120441
 
   3
s       5
     4098.20039080       -5.17582905
      616.49374031       -9.32213001
      139.96644001      -13.65010979
       39.07344105      -13.13468458
       11.92984720       -4.64101699
s       3
       20.65996603        1.44066275
        1.98388610       -1.62956898
        0.64836324       -0.64931235
s       1
        0.38937519        0.85440242
s       1
        0.12003446        0.35348071
p       5
       75.40186202       11.88942030
       17.27481898       12.17713359
        5.18423474        8.46369878
        1.66012120        3.22032584
        0.51232529        0.48715464
p       1
        0.12006490        0.24501143
d       1
        0.12227064        0.10120441
 
   4
s       5
     4098.20039080       -5.17582905
      616.49374031       -9.32213001
      139.96644001      -13.65010979
       39.07344105      -13.13468458
       11.92984720       -4.64101699
s       3
       20.65996603        1.44066275
        1.98388610       -1.62956898
        0.64836324       -0.64931235
s       1
        0.38937519        0.85440242
s       1
        0.12003446        0.35348071
p       5
       75.40186202       11.88942030
       17.27481898       12.17713359
        5.18423474        8.46369878
        1.66012120        3.22032584
        0.51232529        0.48715464
p       1
        0.12006490        0.24501143
d       1
        0.12227064        0.10120441
 
   5
s       5
    10449.82756600        9.72177455
     1571.73652210       17.57839328
      357.12065523       26.14352844
      100.25185935       26.05197455
       30.81272755        9.91436261
s       3
       51.92378943       -3.10988564
        5.70457610        3.60732462
        2.35083768        1.65748540
s       1
        0.56117567        1.12385527
s       1
        0.19162761        0.50203018
p       5
      307.66790569      -39.66590980
       72.10201552      -46.82242368
       22.53268026      -41.33684307
        7.89917654      -22.19257482
        2.87672683       -5.05912705
p       1
        0.90663984        3.06697161
p       1
        0.26888391        0.67123142
d       1
        0.35131453        0.64173219
 
   6
s       5
    10449.82756600        9.72177455
     1571.73652210       17.57839328
      357.12065523       26.14352844
      100.25185935       26.05197455
       30.81272755        9.91436261
s       3
       51.92378943       -3.10988564
        5.70457610        3.60732462
        2.35083768        1.65748540
s       1
        0.56117567        1.12385527
s       1
        0.19162761        0.50203018
p       5
      307.66790569      -39.66590980
       72.10201552      -46.82242368
       22.53268026      -41.33684307
        7.89917654      -22.19257482
        2.87672683       -5.05912705
p       1
        0.90663984        3.06697161
p       1
        0.26888391        0.67123142
d       1
        0.35131453        0.64173219
 
   7
s       5
    10449.82756600        9.72177455
     1571.73652210       17.57839328
      357.12065523       26.14352844
      100.25185935       26.05197455
       30.81272755        9.91436261
s       3
       51.92378943       -3.10988564
        5.70457610        3.60732462
        2.35083768        1.65748540
s       1
        0.56117567        1.12385527
s       1
        0.19162761        0.50203018
p       5
      307.66790569      -39.66590980
       72.10201552      -46.82242368
       22.53268026      -41.33684307
        7.89917654      -22.19257482
        2.87672683       -5.05912705
p       1
        0.90663984        3.06697161
p       1
        0.26888391        0.67123142
d       1
        0.35131453        0.64173219
 
   8
s       5
    10449.82756600        9.72177455
     1571.73652210       17.57839328
      357.12065523       26.14352844
      100.25185935       26.05197455
       30.81272755        9.91436261
s       3
       51.92378943       -3.10988564
        5.70457610        3.60732462
        2.35083768        1.65748540
s       1
        0.56117567        1.12385527
s       1
        0.19162761        0.50203018
p       5
      307.66790569      -39.66590980
       72.10201552      -46.82242368
       22.53268026      -41.33684307
        7.89917654      -22.19257482
        2.87672683       -5.05912705
p       1
        0.90663984        3.06697161
p       1
        0.26888391        0.67123142
d       1
        0.35131453        0.64173219
 
[MO]
 Sym   = A
 Ene   =    -101.662043
 Spin  = ALPHA+BETA
 Occup =  2.0000
    1   0.0000000E+00
    2   0.0000000E+00
    3   0.0000000E+00
    4   0.0000000E+00
    5   0.0000000E+00
    6   0.0000000E+00
    7   0.0000000E+00
    8   0.0000000E+00
    9   0.0000000E+00
   10   0.0000000E+00
   11   0.0000000E+00
   12   0.0000000E+00
   13   0.0000000E+00
   14   0.3066065E-02
   15   0.0000000E+00
   16   0.0000000E+00
   17   0.0000000E+00
   18   0.0000000E+00
   19   0.0000000E+00
   20   0.0000000E+00
   21   0.0000000E+00
   22   0.0000000E+00
   23   0.0000000E+00
   24   0.0000000E+00
   25   0.0000000E+00
   26   0.0000000E+00
   27   0.0000000E+00
   28   0.0000000E+00
   29  -0.3066062E-02
   30   0.0000000E+00
   31   0.0000000E+00
   32   0.4238992E-04
   33   0.4195271E-04
   34  -0.6645797E-04
   35   0.0000000E+00
   36   0.0000000E+00
   37   0.0000000E+00
   38   0.0000000E+00
   39   0.0000000E+00
   40   0.0000000E+00
   41   0.1770188E-02
   42   0.0000000E+00
   43   0.0000000E+00
   44   0.0000000E+00
   45   0.0000000E+00
   46   0.0000000E+00
   47  -0.4238992E-04
   48  -0.4195271E-04
   49   0.6645797E-04
   50   0.0000000E+00
   51   0.0000000E+00
   52   0.0000000E+00
   53   0.0000000E+00
   54   0.0000000E+00
   55   0.0000000E+00
   56  -0.1770188E-02
   57   0.0000000E+00
   58   0.0000000E+00
   59   0.0000000E+00
   60   0.0000000E+00
   61   0.0000000E+00
   62   0.0000000E+00
   63   0.0000000E+00
   64   0.0000000E+00
   65   0.0000000E+00
   66   0.0000000E+00
   67   0.0000000E+00
   68   0.0000000E+00
   69   0.0000000E+00
   70   0.0000000E+00
   71   0.0000000E+00
   72   0.0000000E+00
   73   0.0000000E+00
   74   0.0000000E+00
   75   0.0000000E+00
   76   0.0000000E+00
   77   0.1251818E-03
   78   0.0000000E+00
   79   0.0000000E+00
   80   0.0000000E+00
   81   0.0000000E+00
   82   0.0000000E+00
   83   0.0000000E+00
   84   0.0000000E+00
   85   0.0000000E+00
   86   0.0000000E+00
   87   0.0000000E+00
   88   0.0000000E+00
   89   0.0000000E+00
   90   0.0000000E+00
   91   0.0000000E+00
   92   0.0000000E+00
   93   0.0000000E+00
   94   0.0000000E+00
   95  -0.1251733E-03
   96   0.0000000E+00
   97  -0.7027370E+00
   98  -0.1718170E-01
   99   0.1101288E-01
  100  -0.1120175E-01
  101   0.0000000E+00
  102   0.0000000E+00
  103   0.0000000E+00
  104   0.0000000E+00
  105   0.0000000E+00
  106   0.0000000E+00
  107   0.0000000E+00
  108   0.0000000E+00
  109   0.0000000E+00
  110   0.7227388E-04
  111   0.0000000E+00
  112   0.0000000E+00
  113   0.0000000E+00
  114   0.0000000E+00
  115   0.7027370E+00
  116   0.1718170E-01
  117  -0.1101288E-01
  118   0.1120175E-01
  119   0.0000000E+00
  120   0.0000000E+00
  121   0.0000000E+00
  122   0.0000000E+00
  123   0.0000000E+00
  124   0.0000000E+00
  125   0.0000000E+00
  126   0.0000000E+00
  127   0.0000000E+00
  128  -0.7227388E-04
  129   0.0000000E+00
  130   0.0000000E+00
  131   0.0000000E+00
  132   0.0000000E+00
 Sym   = A
 Ene   =    -101.662043
 Spin  = ALPHA+BETA
 Occup =  2.0000
    1   0.0000000E+00
    2   0.5172044E-04
    3   0.5073842E-04
    4  -0.8057895E-04
    5   0.0000000E+00
    6   0.0000000E+00
    7   0.0000000E+00
    8   0.0000000E+00
    9   0.0000000E+00
   10   0.0000000E+00
   11   0.0000000E+00
   12   0.0000000E+00
   13   0.0000000E+00
   14   0.0000000E+00
   15   0.0000000E+00
   16   0.0000000E+00
   17  -0.1750115E-04
   18  -0.1777247E-04
   19   0.2794777E-04
   20   0.0000000E+00
   21   0.0000000E+00
   22   0.0000000E+00
   23   0.0000000E+00
   24   0.0000000E+00
   25   0.0000000E+00
   26  -0.2890710E-02
   27   0.0000000E+00
   28   0.0000000E+00
   29   0.0000000E+00
   30   0.0000000E+00
   31   0.0000000E+00
   32  -0.1750115E-04
   33  -0.1777247E-04
   34   0.2794777E-04
   35   0.0000000E+00
   36   0.0000000E+00
   37   0.0000000E+00
   38   0.0000000E+00
   39   0.0000000E+00
   40   0.0000000E+00
   41   0.1445355E-02
   42   0.0000000E+00
   43   0.0000000E+00
   44   0.2503429E-02
   45   0.0000000E+00
   46   0.0000000E+00
   47  -0.1750115E-04
   48  -0.1777247E-04
   49   0.2794777E-04
   50   0.0000000E+00
   51   0.0000000E+00
   52   0.0000000E+00
   53   0.0000000E+00
   54   0.0000000E+00
   55   0.0000000E+00
   56   0.1445355E-02
   57   0.0000000E+00
   58   0.0000000E+00
   59  -0.2503429E-02
   60   0.0000000E+00
   61  -0.2870351E+00
   62  -0.7017896E-02
   63   0.4498021E-02
   64  -0.4574613E-02
   65   0.0000000E+00
   66   0.0000000E+00
   67   0.0000000E+00
   68   0.0000000E+00
   69   0.0000000E+00
   70   0.0000000E+00
   71   0.0000000E+00
   72   0.0000000E+00
   73   0.0000000E+00
   74   0.1180199E-03
   75   0.0000000E+00
   76   0.0000000E+00
   77   0.0000000E+00
   78   0.0000000E+00
   79   0.8605295E+00
   80   0.2103971E-01
   81  -0.1348594E-01
   82   0.1371778E-01
   83   0.0000000E+00
   84   0.0000000E+00
   85   0.0000000E+00
   86   0.0000000E+00
   87   0.0000000E+00
   88   0.0000000E+00
   89   0.0000000E+00
   90   0.0000000E+00
   91   0.0000000E+00
   92   0.0000000E+00
   93   0.0000000E+00
   94   0.0000000E+00
   95   0.0000000E+00
   96   0.0000000E+00
   97  -0.2870351E+00
   98  -0.7017896E-02
   99   0.4498021E-02
  100  -0.4574613E-02
  101   0.0000000E+00
  102   0.0000000E+00
  103   0.0000000E+00
  104   0.0000000E+00
  105   0.0000000E+00
  106   0.0000000E+00
  107   0.0000000E+00
  108   0.0000000E+00
  109   0.0000000E+00
  110  -0.5900993E-04
  111   0.0000000E+00
  112   0.0000000E+00
  113   0.1022082E-03
  114   0.0000000E+00
  115  -0.2870351E+00
  116  -0.7017896E-02
  117   0.4498021E-02
  118  -0.4574613E-02
  119   0.0000000E+00
  120   0.0000000E+00
  121   0.0000000E+00
  122   0.0000000E+00
  123   0.0000000E+00
  124   0.0000000E+00
  125   0.0000000E+00
  126   0.0000000E+00
  127   0.0000000E+00
  128  -0.5900993E-04
  129   0.0000000E+00
  130   0.0000000E+00
  131  -0.1022082E-03
  132   0.0000000E+00
 Sym   = A
 Ene   =    -101.662043
 Spin  = ALPHA+BETA
 Occup =  2.0000
    1  -0.1462404E-04
    2   0.6583372E-03
    3   0.2189690E-02
    4  -0.2788261E-02
    5   0.0000000E+00
    6   0.0000000E+00
    7   0.0000000E+00
    8   0.0000000E+00
    9   0.0000000E+00
   10   0.0000000E+00
   11   0.0000000E+00
   12   0.0000000E+00
   13   0.0000000E+00
   14   0.0000000E+00
   15   0.0000000E+00
   16  -0.1462366E-04
   17   0.6583328E-03
   18   0.2189693E-02
   19  -0.2788238E-02
   20   0.0000000E+00
   21   0.0000000E+00
   22   0.0000000E+00
   23   0.0000000E+00
   24   0.0000000E+00
   25   0.0000000E+00
   26   0.0000000E+00
   27   0.0000000E+00
   28   0.0000000E+00
   29   0.0000000E+00
   30   0.0000000E+00
   31  -0.1462366E-04
   32   0.6583328E-03
   33   0.2189693E-02
   34  -0.2788238E-02
   35   0.0000000E+00
   36   0.0000000E+00
   37   0.0000000E+00
   38   0.0000000E+00
   39   0.0000000E+00
   40   0.0000000E+00
   41   0.0000000E+00
   42   0.0000000E+00
   43   0.0000000E+00
   44   0.0000000E+00
   45   0.0000000E+00
   46  -0.1462366E-04
   47   0.6583328E-03
   48   0.2189693E-02
   49  -0.2788238E-02
   50   0.0000000E+00
   51   0.0000000E+00
   52   0.0000000E+00
   53   0.0000000E+00
   54   0.0000000E+00
   55   0.0000000E+00
   56   0.0000000E+00
   57   0.0000000E+00
   58   0.0000000E+00
   59   0.0000000E+00
   60   0.0000000E+00
   61   0.4968354E+00
   62   0.1205163E-01
   63  -0.6976978E-02
   64   0.5194415E-02
   65   0.0000000E+00
   66   0.0000000E+00
   67   0.0000000E+00
   68   0.0000000E+00
   69   0.0000000E+00
   70   0.0000000E+00
   71   0.0000000E+00
   72   0.0000000E+00
   73   0.0000000E+00
   74   0.0000000E+00
   75   0.0000000E+00
   76   0.0000000E+00
   77   0.0000000E+00
   78   0.0000000E+00
   79   0.4971679E+00
   80   0.1205975E-01
   81  -0.6982187E-02
   82   0.5199705E-02
   83   0.0000000E+00
   84   0.0000000E+00
   85   0.0000000E+00
   86   0.0000000E+00
   87   0.0000000E+00
   88   0.0000000E+00
   89   0.0000000E+00
   90   0.0000000E+00
   91   0.0000000E+00
   92   0.0000000E+00
   93   0.0000000E+00
   94   0.0000000E+00
   95   0.0000000E+00
   96   0.0000000E+00
   97   0.4968354E+00
   98   0.1205163E-01
   99  -0.6976978E-02
  100   0.5194415E-02
  101   0.0000000E+00
  102   0.0000000E+00
  103   0.0000000E+00
  104   0.0000000E+00
  105   0.0000000E+00
  106   0.0000000E+00
  107   0.0000000E+00
  108   0.0000000E+00
  109   0.0000000E+00
  110   0.0000000E+00
  111   0.0000000E+00
  112   0.0000000E+00
  113   0.0000000E+00
  114   0.0000000E+00
  115   0.4968354E+00
  116   0.1205163E-01
  117  -0.6976978E-02
  118   0.5194415E-02
  119   0.0000000E+00
  120   0.0000000E+00
  121   0.0000000E+00
  122   0.0000000E+00
  123   0.0000000E+00
  124   0.0000000E+00
  125   0.0000000E+00
  126   0.0000000E+00
  127   0.0000000E+00
  128   0.0000000E+00
  129   0.0000000E+00
  130   0.0000000E+00
  131   0.0000000E+00
  132   0.0000000E+00
 Sym   = A
 Ene   =    -101.661970
 Spin  = ALPHA+BETA
 Occup =  2.0000
    1   0.0000000E+00
    2   0.0000000E+00
    3   0.0000000E+00
    4   0.0000000E+00
    5   0.0000000E+00
    6   0.0000000E+00
    7   0.0000000E+00
    8   0.0000000E+00
    9   0.0000000E+00
   10   0.0000000E+00
   11   0.1221571E-02
   12   0.0000000E+00
   13   0.0000000E+00
   14   0.0000000E+00
   15   0.0000000E+00
   16  -0.8124514E+00
   17  -0.2469641E-01
   18  -0.1907816E-01
   19   0.8126897E-02
   20   0.0000000E+00
   21   0.0000000E+00
   22   0.0000000E+00
   23   0.0000000E+00
   24   0.0000000E+00
   25   0.0000000E+00
   26   0.4071904E-03
   27   0.0000000E+00
   28   0.0000000E+00
   29   0.0000000E+00
   30   0.0000000E+00
   31   0.4062257E+00
   32   0.1234820E-01
   33   0.9539082E-02
   34  -0.4063448E-02
   35   0.0000000E+00
   36   0.0000000E+00
   37   0.0000000E+00
   38   0.0000000E+00
   39   0.0000000E+00
   40   0.0000000E+00
   41  -0.8143807E-03
   42   0.0000000E+00
   43   0.0000000E+00
   44   0.7052744E-03
   45   0.0000000E+00
   46   0.4062257E+00
   47   0.1234820E-01
   48   0.9539082E-02
   49  -0.4063448E-02
   50   0.0000000E+00
   51   0.0000000E+00
   52   0.0000000E+00
   53   0.0000000E+00
   54   0.0000000E+00
   55   0.0000000E+00
   56  -0.8143807E-03
   57   0.0000000E+00
   58   0.0000000E+00
   59  -0.7052744E-03
   60   0.0000000E+00
   61   0.0000000E+00
   62  -0.4405053E-04
   63   0.3482872E-03
   64  -0.1349047E-02
   65   0.0000000E+00
   66   0.0000000E+00
   67   0.0000000E+00
   68   0.0000000E+00
   69   0.0000000E+00
   70   0.0000000E+00
   71   0.0000000E+00
   72   0.0000000E+00
   73   0.0000000E+00
   74  -0.3229881E-03
   75   0.0000000E+00
   76   0.0000000E+00
   77   0.0000000E+00
   78   0.0000000E+00
   79   0.0000000E+00
   80   0.0000000E+00
   81   0.0000000E+00
   82   0.0000000E+00
   83   0.0000000E+00
   84   0.0000000E+00
   85   0.0000000E+00
   86   0.0000000E+00
   87   0.0000000E+00
   88   0.0000000E+00
   89   0.0000000E+00
   90   0.0000000E+00
   91   0.0000000E+00
   92  -0.9689643E-03
   93   0.0000000E+00
   94   0.0000000E+00
   95   0.0000000E+00
   96   0.0000000E+00
   97   0.0000000E+00
   98   0.2202527E-04
   99  -0.1741436E-03
  100   0.6745233E-03
  101   0.0000000E+00
  102   0.0000000E+00
  103   0.0000000E+00
  104   0.0000000E+00
  105   0.0000000E+00
  106   0.0000000E+00
  107   0.0000000E+00
  108   0.0000000E+00
  109   0.0000000E+00
  110   0.6459762E-03
  111   0.0000000E+00
  112   0.0000000E+00
  113   0.5594318E-03
  114   0.0000000E+00
  115   0.0000000E+00
  116   0.2202527E-04
  117  -0.1741436E-03
  118   0.6745233E-03
  119   0.0000000E+00
  120   0.0000000E+00
  121   0.0000000E+00
  122   0.0000000E+00
  123   0.0000000E+00
  124   0.0000000E+00
  125   0.0000000E+00
  126   0.0000000E+00
  127   0.0000000E+00
  128   0.6459762E-03
  129   0.0000000E+00
  130   0.0000000E+00
  131  -0.5594318E-03
  132   0.0000000E+00
 Sym   = A
 Ene   =     -38.584850
 Spin  = ALPHA+BETA
 Occup =  2.0000
    1   0.0000000E+00
    2   0.0000000E+00
    3   0.0000000E+00
    4   0.0000000E+00
    5   0.0000000E+00
    6   0.0000000E+00
    7   0.0000000E+00
    8   0.0000000E+00
    9   0.0000000E+00
   10   0.0000000E+00
   11   0.0000000E+00
   12   0.0000000E+00
   13   0.0000000E+00
   14   0.1221571E-02
   15   0.0000000E+00
   16   0.0000000E+00
   17   0.0000000E+00
   18   0.0000000E+00
   19   0.0000000E+00
   20   0.0000000E+00
   21   0.0000000E+00
   22   0.0000000E+00
   23   0.0000000E+00
   24   0.0000000E+00
   25   0.0000000E+00
   26   0.0000000E+00
   27   0.0000000E+00
   28   0.0000000E+00
   29  -0.1221571E-02
   30   0.0000000E+00
   31   0.7036035E+00
   32   0.2138772E-01
   33   0.1652218E-01
   34  -0.7038099E-02
   35   0.0000000E+00
   36   0.0000000E+00
   37   0.0000000E+00
   38   0.0000000E+00
   39   0.0000000E+00
   40   0.0000000E+00
   41   0.7052744E-03
   42   0.0000000E+00
   43   0.0000000E+00
   44   0.0000000E+00
   45   0.0000000E+00
   46  -0.7036035E+00
   47  -0.2138772E-01
   48  -0.1652218E-01
   49   0.7038099E-02
   50   0.0000000E+00
   51   0.0000000E+00
   52   0.0000000E+00
   53   0.0000000E+00
   54   0.0000000E+00
   55   0.0000000E+00
   56  -0.7052744E-03
   57   0.0000000E+00
   58   0.0000000E+00
   59   0.0000000E+00
   60   0.0000000E+00
   61   0.0000000E+00
   62   0.0000000E+00
   63   0.0000000E+00
   64   0.0000000E+00
   65   0.0000000E+00
   66   0.0000000E+00
   67   0.0000000E+00
   68   0.0000000E+00
   69   0.0000000E+00
   70   0.0000000E+00
   71   0.0000000E+00
   72   0.0000000E+00
   73   0.0000000E+00
   74   0.0000000E+00
   75   0.0000000E+00
   76   0.0000000E+00
   77   0.9689643E-03
   78   0.0000000E+00
   79   0.0000000E+00
   80   0.0000000E+00
   81   0.0000000E+00
   82   0.0000000E+00
   83   0.0000000E+00
   84   0.0000000E+00
   85   0.0000000E+00
   86   0.0000000E+00
   87   0.0000000E+00
   88   0.0000000E+00
   89   0.0000000E+00
   90   0.0000000E+00
   91   0.0000000E+00
   92   0.0000000E+00
   93   0.0000000E+00
   94   0.0000000E+00
   95  -0.9689643E-03
   96   0.0000000E+00
   97   0.0000000E+00
   98  -0.3814888E-04
   99   0.3016255E-03
  100  -0.1168309E-02
  101   0.0000000E+00
  102   0.0000000E+00
  103   0.0000000E+00
  104   0.0000000E+00
  105   0.0000000E+00
  106   0.0000000E+00
  107   0.0000000E+00
  108   0.0000000E+00
  109   0.0000000E+00
  110   0.5594318E-03
  111   0.0000000E+00
  112   0.0000000E+00
  113   0.0000000E+00
  114   0.0000000E+00
  115   0.0000000E+00
  116   0.3814888E-04
  117  -0.3016255E-03
  118   0.1168309E-02
  119   0.0000000E+00
  120   0.0000000E+00
  121   0.0000000E+00
  122   0.0000000E+00
  123   0.0000000E+00
  124   0.0000000E+00
  125   0.0000000E+00
  126   0.0000000E+00
  127   0.0000000E+00
  128  -0.5594318E-03
  129   0.0000000E+00
  130   0.0000000E+00
  131   0.0000000E+00
  132   0.0000000E+00
 Sym   = A
 Ene   =     -38.584850
 Spin  = ALPHA+BETA
 Occup =  2.0000
    1   0.8617343E+00
    2   0.2619448E-01
    3   0.2023544E-01
    4  -0.8619873E-02
    5   0.0000000E+00
    6   0.0000000E+00
    7   0.0000000E+00
    8   0.0000000E+00
    9   0.0000000E+00
   10   0.0000000E+00
   11   0.0000000E+00
   12   0.0000000E+00
   13   0.0000000E+00
   14   0.0000000E+00
   15   0.0000000E+00
   16  -0.2872455E+00
   17  -0.8731515E-02
   18  -0.6745160E-02
   19   0.2873295E-02
   20   0.0000000E+00
   21   0.0000000E+00
   22   0.0000000E+00
   23   0.0000000E+00
   24   0.0000000E+00
   25   0.0000000E+00
   26  -0.1151708E-02
   27   0.0000000E+00
   28   0.0000000E+00
   29   0.0000000E+00
   30   0.0000000E+00
   31  -0.2872455E+00
   32  -0.8731515E-02
   33  -0.6745160E-02
   34   0.2873295E-02
   35   0.0000000E+00
   36   0.0000000E+00
   37   0.0000000E+00
   38   0.0000000E+00
   39   0.0000000E+00
   40   0.0000000E+00
   41   0.5758541E-03
   42   0.0000000E+00
   43   0.0000000E+00
   44   0.9974086E-03
   45   0.0000000E+00
   46  -0.2872455E+00
   47  -0.8731515E-02
   48  -0.6745160E-02
   49   0.2873295E-02
   50   0.0000000E+00
   51   0.0000000E+00
   52   0.0000000E+00
   53   0.0000000E+00
   54   0.0000000E+00
   55   0.0000000E+00
   56   0.5758541E-03
   57   0.0000000E+00
   58   0.0000000E+00
   59  -0.9974086E-03
   60   0.0000000E+00
   61   0.0000000E+00
   62  -0.1557489E-04
   63   0.1231399E-03
   64  -0.4769621E-03
   65   0.0000000E+00
   66   0.0000000E+00
   67   0.0000000E+00
   68   0.0000000E+00
   69   0.0000000E+00
   70   0.0000000E+00
   71   0.0000000E+00
   72   0.0000000E+00
   73   0.0000000E+00
   74   0.9135483E-03
   75   0.0000000E+00
   76   0.0000000E+00
   77   0.0000000E+00
   78   0.0000000E+00
   79   0.0000000E+00
   80   0.4672210E-04
   81  -0.3694126E-03
   82   0.1430878E-02
   83   0.0000000E+00
   84   0.0000000E+00
   85   0.0000000E+00
   86   0.0000000E+00
   87   0.0000000E+00
   88   0.0000000E+00
   89   0.0000000E+00
   90   0.0000000E+00
   91   0.0000000E+00
   92   0.0000000E+00
   93   0.0000000E+00
   94   0.0000000E+00
   95   0.0000000E+00
   96   0.0000000E+00
   97   0.0000000E+00
   98  -0.1557489E-04
   99   0.1231399E-03
  100  -0.4769621E-03
  101   0.0000000E+00
  102   0.0000000E+00
  103   0.0000000E+00
  104   0.0000000E+00
  105   0.0000000E+00
  106   0.0000000E+00
  107   0.0000000E+00
  108   0.0000000E+00
  109   0.0000000E+00
  110  -0.4567742E-03
  111   0.0000000E+00
  112   0.0000000E+00
  113   0.7911560E-03
  114   0.0000000E+00
  115   0.0000000E+00
  116  -0.1557489E-04
  117   0.1231399E-03
  118  -0.4769621E-03
  119   0.0000000E+00
  120   0.0000000E+00
  121   0.0000000E+00
  122   0.0000000E+00
  123   0.0000000E+00
  124   0.0000000E+00
  125   0.0000000E+00
  126   0.0000000E+00
  127   0.0000000E+00
  128  -0.4567742E-03
  129   0.0000000E+00
  130   0.0000000E+00
  131  -0.7911560E-03
  132   0.0000000E+00
 Sym   = A
 Ene   =     -38.584850
 Spin  = ALPHA+BETA
 Occup =  2.0000
    1   0.4975551E+00
    2   0.1432399E-01
    3   0.9671439E-02
    4  -0.3070003E-02
    5   0.0000000E+00
    6   0.0000000E+00
    7   0.0000000E+00
    8   0.0000000E+00
    9   0.0000000E+00
   10   0.0000000E+00
   11   0.0000000E+00
   12   0.0000000E+00
   13   0.0000000E+00
   14   0.0000000E+00
   15   0.0000000E+00
   16   0.4975538E+00
   17   0.1432395E-01
   18   0.9671410E-02
   19  -0.3069994E-02
   20   0.0000000E+00
   21   0.0000000E+00
   22   0.0000000E+00
   23   0.0000000E+00
   24   0.0000000E+00
   25   0.0000000E+00
   26   0.0000000E+00
   27   0.0000000E+00
   28   0.0000000E+00
   29   0.0000000E+00
   30   0.0000000E+00
   31   0.4975538E+00
   32   0.1432395E-01
   33   0.9671410E-02
   34  -0.3069994E-02
   35   0.0000000E+00
   36   0.0000000E+00
   37   0.0000000E+00
   38   0.0000000E+00
   39   0.0000000E+00
   40   0.0000000E+00
   41   0.0000000E+00
   42   0.0000000E+00
   43   0.0000000E+00
   44   0.0000000E+00
   45   0.0000000E+00
   46   0.4975538E+00
   47   0.1432395E-01
   48   0.9671410E-02
   49  -0.3069994E-02
   50   0.0000000E+00
   51   0.0000000E+00
   52   0.0000000E+00
   53   0.0000000E+00
   54   0.0000000E+00
   55   0.0000000E+00
   56   0.0000000E+00
   57   0.0000000E+00
   58   0.0000000E+00
   59   0.0000000E+00
   60   0.0000000E+00
   61  -0.2409956E-04
   62   0.2353499E-03
   63  -0.1320387E-02
   64   0.2272781E-02
   65   0.0000000E+00
   66   0.0000000E+00
   67   0.0000000E+00
   68   0.0000000E+00
   69   0.0000000E+00
   70   0.0000000E+00
   71   0.0000000E+00
   72   0.0000000E+00
   73   0.0000000E+00
   74   0.0000000E+00
   75   0.0000000E+00
   76   0.0000000E+00
   77   0.0000000E+00
   78   0.0000000E+00
   79  -0.2409995E-04
   80   0.2353525E-03
   81  -0.1320390E-02
   82   0.2272774E-02
   83   0.0000000E+00
   84   0.0000000E+00
   85   0.0000000E+00
   86   0.0000000E+00
   87   0.0000000E+00
   88   0.0000000E+00
   89   0.0000000E+00
   90   0.0000000E+00
   91   0.0000000E+00
   92   0.0000000E+00
   93   0.0000000E+00
   94   0.0000000E+00
   95   0.0000000E+00
   96   0.0000000E+00
   97  -0.2409956E-04
   98   0.2353499E-03
   99  -0.1320387E-02
  100   0.2272781E-02
  101   0.0000000E+00
  102   0.0000000E+00
  103   0.0000000E+00
  104   0.0000000E+00
  105   0.0000000E+00
  106   0.0000000E+00
  107   0.0000000E+00
  108   0.0000000E+00
  109   0.0000000E+00
  110   0.0000000E+00
  111   0.0000000E+00
  112   0.0000000E+00
  113   0.0000000E+00
  114   0.0000000E+00
  115  -0.2409956E-04
  116   0.2353499E-03
  117  -0.1320387E-02
  118   0.2272781E-02
  119   0.0000000E+00
  120   0.0000000E+00
  121   0.0000000E+00
  122   0.0000000E+00
  123   0.0000000E+00
  124   0.0000000E+00
  125   0.0000000E+00
  126   0.0000000E+00
  127   0.0000000E+00
  128   0.0000000E+00
  129   0.0000000E+00
  130   0.0000000E+00
  131   0.0000000E+00
  132   0.0000000E+00
 Sym   = A
 Ene   =     -38.584717
 Spin  = ALPHA+BETA
 Occup =  2.0000
    1   0.0000000E+00
    2   0.0000000E+00
    3   0.0000000E+00
    4   0.0000000E+00
    5   0.0000000E+00
    6   0.0000000E+00
    7   0.0000000E+00
    8   0.0000000E+00
    9   0.0000000E+00
   10   0.0000000E+00
   11  -0.3946529E-02
   12   0.0000000E+00
   13   0.0000000E+00
   14   0.0000000E+00
   15   0.0000000E+00
   16   0.0000000E+00
   17   0.0000000E+00
   18  -0.2197160E-03
   19   0.3515891E-03
   20   0.0000000E+00
   21   0.0000000E+00
   22   0.0000000E+00
   23   0.0000000E+00
   24   0.0000000E+00
   25   0.0000000E+00
   26  -0.1315509E-02
   27   0.0000000E+00
   28   0.0000000E+00
   29   0.0000000E+00
   30   0.0000000E+00
   31   0.0000000E+00
   32   0.0000000E+00
   33   0.1098580E-03
   34  -0.1757946E-03
   35   0.0000000E+00
   36   0.0000000E+00
   37   0.0000000E+00
   38   0.0000000E+00
   39   0.0000000E+00
   40   0.0000000E+00
   41   0.2631021E-02
   42   0.0000000E+00
   43   0.0000000E+00
   44  -0.2278530E-02
   45   0.0000000E+00
   46   0.0000000E+00
   47   0.0000000E+00
   48   0.1098580E-03
   49  -0.1757946E-03
   50   0.0000000E+00
   51   0.0000000E+00
   52   0.0000000E+00
   53   0.0000000E+00
   54   0.0000000E+00
   55   0.0000000E+00
   56   0.2631021E-02
   57   0.0000000E+00
   58   0.0000000E+00
   59   0.2278530E-02
   60   0.0000000E+00
   61   0.2542610E+00
   62  -0.8309628E+00
   63  -0.4150326E-01
   64   0.1970155E-01
   65   0.0000000E+00
   66   0.0000000E+00
   67   0.0000000E+00
   68   0.0000000E+00
   69   0.0000000E+00
   70   0.0000000E+00
   71   0.0000000E+00
   72   0.0000000E+00
   73   0.0000000E+00
   74   0.3420321E-04
   75   0.0000000E+00
   76   0.0000000E+00
   77   0.0000000E+00
   78   0.0000000E+00
   79   0.0000000E+00
   80   0.0000000E+00
   81   0.0000000E+00
   82   0.0000000E+00
   83   0.0000000E+00
   84   0.0000000E+00
   85   0.0000000E+00
   86   0.0000000E+00
   87   0.0000000E+00
   88   0.0000000E+00
   89   0.0000000E+00
   90   0.0000000E+00
   91   0.0000000E+00
   92   0.1026089E-03
   93   0.0000000E+00
   94   0.0000000E+00
   95   0.0000000E+00
   96   0.0000000E+00
   97  -0.1271305E+00
   98   0.4154814E+00
   99   0.2075163E-01
  100  -0.9850776E-02
  101   0.0000000E+00
  102   0.0000000E+00
  103   0.0000000E+00
  104   0.0000000E+00
  105   0.0000000E+00
  106   0.0000000E+00
  107   0.0000000E+00
  108   0.0000000E+00
  109   0.0000000E+00
  110  -0.6840535E-04
  111   0.0000000E+00
  112   0.0000000E+00
  113  -0.5924108E-04