[Molden Format]
[5D]
[7F]
[Atoms] AU
 Zn     1    30 0 0 0
[GTO]
    1 0
 s    1 1.00
 0.25530772234000E+00 0.10000000000000E+01
 p    1 1.00
 0.27641544411000E+00 0.10000000000000E+01
 d    1 1.00
 0.12000000000000E+01 0.10000000000000E+01
 f    1 1.00
 0.10000000000000E+01 0.10000000000000E+01
 
[MO]
 Sym=  s
 Ene=  0.0
 Spin= Alpha
 Occup= 2.000000
    1 1.0
    2 0.0
    3 0.0
    4 0.0
    5 0.0
    6 0.0
    7 0.0
    8 0.0
    9 0.0
   10 0.0
   11 0.0
   12 0.0
   13 0.0
   14 0.0
   15 0.0
   16 0.0
 Sym=  px 
 Ene= 1.0
 Spin= Alpha
 Occup= 2.000000
    1 0.0
    2 1.0
    3 0.0
    4 0.0
    5 0.0
    6 0.0
    7 0.0
    8 0.0
    9 0.0
   10 0.0
   11 0.0
   12 0.0
   13 0.0
   14 0.0
   15 0.0
   16 0.0
 Sym=  py
 Ene= 1.0
 Spin= Alpha
 Occup= 2.000000
    1 0.0
    2 0.0
    3 1.0
    4 0.0
    5 0.0
    6 0.0
    7 0.0
    8 0.0
    9 0.0
   10 0.0
   11 0.0
   12 0.0
   13 0.0
   14 0.0
   15 0.0
   16 0.0
 Sym=  pz 
 Ene= 1.0
 Spin= Alpha
 Occup= 2.000000
    1 0.0
    2 0.0
    3 0.0
    4 1.0
    5 0.0
    6 0.0
    7 0.0
    8 0.0
    9 0.0
   10 0.0
   11 0.0
   12 0.0
   13 0.0
   14 0.0
   15 0.0
   16 0.0
 Sym=  D0 
 Ene= 3.0
 Spin= Alpha
 Occup= 1.000000
    1 0.0
    2 0.0
    3 0.0
    4 0.0
    5 1.0
    6 0.0
    7 0.0
    8 0.0
    9 0.0
   10 0.0
   11 0.0
   12 0.0
   13 0.0
   14 0.0
   15 0.0
   16 0.0
 Sym=  D1 
 Ene= 3.0
 Spin= Alpha
 Occup= 1.000000
    1 0.0
    2 0.0
    3 0.0
    4 0.0
    5 0.0
    6 1.0
    7 0.0
    8 0.0
    9 0.0
   10 0.0
   11 0.0
   12 0.0
   13 0.0
   14 0.0
   15 0.0
   16 0.0
 Sym=  D-1 
 Ene= 3.0
 Spin= Alpha
 Occup= 1.000000
    1 0.0
    2 0.0
    3 0.0
    4 0.0
    5 0.0
    6 0.0
    7 1.0
    8 0.0
    9 0.0
   10 0.0
   11 0.0
   12 0.0
   13 0.0
   14 0.0
   15 0.0
   16 0.0
 Sym=  D+2 
 Ene= 3.0
 Spin= Alpha
 Occup= 1.000000
    1 0.0
    2 0.0
    3 0.0
    4 0.0
    5 0.0
    6 0.0
    7 0.0
    8 1.0
    9 0.0
   10 0.0
   11 0.0
   12 0.0
   13 0.0
   14 0.0
   15 0.0
   16 0.0
 Sym=  D-2 
 Ene= 3.0
 Spin= Alpha
 Occup= 1.000000
    1 0.0
    2 0.0
    3 0.0
    4 0.0
    5 0.0
    6 0.0
    7 0.0
    8 0.0
    9 1.0
   10 0.0
   11 0.0
   12 0.0
   13 0.0
   14 0.0
   15 0.0
   16 0.0
 Sym=  F0 
 Ene= 4.0
 Spin= Alpha
 Occup= 0.000000
    1 0.0
    2 0.0
    3 0.0
    4 0.0
    5 0.0
    6 0.0
    7 0.0
    8 0.0
    9 0.0
   10 1.0
   11 0.0
   12 0.0
   13 0.0
   14 0.0
   15 0.0
   16 0.0
 Sym=  F+1 
 Ene= 4.0
 Spin= Alpha
 Occup= 0.000000
    1 0.0
    2 0.0
    3 0.0
    4 0.0
    5 0.0
    6 0.0
    7 0.0
    8 0.0
    9 0.0
   10 0.0
   11 1.0
   12 0.0
   13 0.0
   14 0.0
   15 0.0
   16 0.0
 Sym=  F-1 
 Ene= 4.0
 Spin= Alpha
 Occup= 0.000000
    1 0.0
    2 0.0
    3 0.0
    4 0.0
    5 0.0
    6 0.0
    7 0.0
    8 0.0
    9 0.0
   10 0.0
   11 0.0
   12 1.0
   13 0.0
   14 0.0
   15 0.0
   16 0.0
 Sym=  F+2 
 Ene= 4.0
 Spin= Alpha
 Occup= 0.000000
    1 0.0
    2 0.0
    3 0.0
    4 0.0
    5 0.0
    6 0.0
    7 0.0
    8 0.0
    9 0.0
   10 0.0
   11 0.0
   12 0.0
   13 1.0
   14 0.0
   15 0.0
   16 0.0
 Sym=  F-2 
 Ene= 4.0
 Spin= Alpha
 Occup= 0.000000
    1 0.0
    2 0.0
    3 0.0
    4 0.0
    5 0.0
    6 0.0
    7 0.0
    8 0.0
    9 0.0
   10 0.0
   11 0.0
   12 0.0
   13 0.0
   14 1.0
   15 0.0
   16 0.0
 Sym=  F+3 
 Ene= 4.0
 Spin= Alpha
 Occup= 0.000000
    1 0.0
    2 0.0
    3 0.0
    4 0.0
    5 0.0
    6 0.0
    7 0.0
    8 0.0
    9 0.0
   10 0.0
   11 0.0
   12 0.0
   13 0.0
   14 0.0
   15 1.0
   16 0.0
 Sym=  F-3 
 Ene= 4.0
 Spin= Alpha
 Occup= 0.000000
    1 0.0
    2 0.0
    3 0.0
    4 0.0
    5 0.0
    6 0.0
    7 0.0
    8 0.0
    9 0.0
   10 0.0
   11 0.0
   12 0.0
   13 0.0
   14 0.0
   15 0.0
   16 1.0
