executable used: /home/casassa/SVN_PUB17/bin/Linux-ifort_openmpi_i64_clut/std/
output data in /home/casassa/Support/Topond/Fayzullin/v611_thro.outp
Pproperties executable in /home/casassa/SVN_PUB17/bin/Linux-ifort_openmpi_i64_clut/std/
input data in /home/casassa/Support/Topond/Fayzullin/v611_thro.d3
creating temporary directories /data/casassa/803815 on each node
copying Pproperties executable on each node
copying input file on each node
scf guess from /home/casassa/Support/Topond/Fayzullin/v611.f9
TOPO
TRHO                        
-1                          
2,0,1,0,20,20,2.,0.
END
Fri Aug 31 11:17:53 CEST 2018
 PROCESS            1  OF            4  WORKING
 PROCESS            3  OF            4  WORKING
 PROCESS            0  OF            4  WORKING

         
 *******************************************************************************
 *                                                                             *
 *                               CRYSTAL17                                     *
 *                      public : 1.0.1 - Feb 1st, 2017                         *
 *                       HTTP://WWW.CRYSTAL.UNITO.IT                           *
 *                                                                             *
 *                              MAIN AUTHORS                                   *
 *                                                                             *
 *  R. DOVESI(1,11), V.R. SAUNDERS(2), C. ROETTI(1,11), R. ORLANDO(1,11),      *
 *  C.M. ZICOVICH-WILSON(1,3), F. PASCALE(4), B. CIVALLERI(1,11),              *
 *  K. DOLL(5), N.M. HARRISON(2,6), I.J. BUSH(7), Ph. D'ARCO(8),               *
 *  M. LLUNELL(9), M. CAUSA'(10), Y. NOEL(8), L. MASCHIO(1,11), A. ERBA(1,11)  *
 *  M. RE'RAT(14), S. CASASSA(1,11)                                            *
 *                                                                             *
 *        CONTRIBUTIONS TO THE CODE HAVE ALSO BEEN GIVEN BY                    *
 *                                                                             *
 *  M. FERRABONE(1,11), M. DE LA PIERRE(1,11), M. FERRERO(1,11),               *
 *  J. BAIMA(1,11), E. ALBANESE(1,11), M.F. PEINTINGER(12), R. BAST(13),       *
 *  B. KIRTMAN(15), V. LACIVITA(1,11), R. DEMICHELIS(1,16)                     *
 *  G. BRANDEBURG(17), S. SALUSTRO(1,11), G. SANSONE(1,11)                     *
 *  M.T. RUGGIERO(18)                                                          *
 *                                                                             *
 * (1) THEORETICAL CHEMISTRY GROUP - UNIVERSITA' DI TORINO - TORINO (ITALY)    *

 * (2) COMPUTATIONAL SCIENCE & ENGINEERING DEPARTMENT - STFC DARESBURY (UK)    *
 * (3) UNIVERSIDAD AUTONOMA DEL ESTADO DE MORELOS - CUERNAVACA (MEXICO)        *
 * (4) UNIVERSITE' DE LORRAINE - NANCY (FRANCE)                                *
 * (5) UNIVERSITAET STUTTGART- STUTTGART (GERMANY)                             *
 * (6) IMPERIAL COLLEGE - LONDON (UK)                                          *
 * (7) OXFORD E-RESEARCH CENTRE - OXFORD (UK)                                  *
 * (8) UPMC - SORBONNE UNIVERSITES - PARIS (FRANCE)                            *
 PROCESS            2  OF            4  WORKING
 * (9) UNIVERSIDAD DE BARCELONA - BARCELONA (SPAIN)                            *
 *(10) UNIVERSITA' DI NAPOLI "FEDERICO II" - NAPOLI (ITALY)                    *
 *(11) NIS - NANOSTRUCTURED INTERFACES AND SURFACES - TORINO (ITALY)           *
 *(12) MPI FUER CHEMISCHE ENERGIEKONVERSION - MUELHEIM AN DER RUHR (GERMANY)   *
 *(13) UNIVERSITY OF TROMSO - TROMSO (NORWAY)                                  *
 *(14) UNIVERSITE' DE PAU ET DES PAYS DE L'ADOUR - PAU (FRANCE)                *
 *(15) UNIVERSITY OF CALIFORNIA SANTA BARBARA - SANTA BARBARA (USA)            *
 *(16) CURTIN UNIVERSITY - PERTH (AUSTRALIA)                                   *
 *(17) UNIVERSITY COLLEGE LONDON - LONDON (UK)                                 *
 *(18) CAMBRIDGE UNIVERSITY - CAMBRIDGE (UK)                                   *
 *                                                                             *
 *******************************************************************************
 EEEEEEEEEE STARTING  DATE 31 08 2018 TIME 11:17:54.1

 *******************************************************************************
 20180615_v611 - basis pob_TZVP                                                  
 CRYSTAL - PROPERTIES - TYPE OF CALCULATION :  RESTRICTED CLOSED SHELL
 *******************************************************************************
 KOHN-SHAM HAMILTONIAN

 (EXCHANGE)[CORRELATION] FUNCTIONAL:(PERDEW-BURKE-ERNZERHOF)[PERDEW-BURKE-ERNZERHOF]


 HYBRID EXCHANGE - PERCENTAGE OF FOCK EXCHANGE    33.3333

 DIRECT LATTICE VECTOR COMPONENTS (ANGSTROM)
         7.73821   -1.49659    0.00000
         0.00000   10.02200    0.00000
        -1.47696   -2.88708    9.89883

 LATTICE PARAMETERS  (ANGSTROM AND DEGREES) - PRIMITIVE CELL
       A          B          C         ALPHA      BETA     GAMMA        VOLUME
    7.88160   10.02200   10.41650    106.0910   94.9670  100.9460     767.67718
 *******************************************************************************
 N. OF ATOMS PER CELL        72 COULOMB OVERLAP TOL          (T1) 10**   -7
 NUMBER OF SHELLS           478 COULOMB PENETRATION TOL      (T2) 10**   -7
 NUMBER OF AO              1006 EXCHANGE OVERLAP TOL         (T3) 10**   -7
 N. OF ELECTRONS PER CELL   368 EXCHANGE PSEUDO OVP (F(G))   (T4) 10**   -7
 CORE ELECTRONS PER CELL    140 EXCHANGE PSEUDO OVP (P(G))   (T5) 10**  -14
 N. OF SYMMETRY OPERATORS     2 POLE ORDER IN MONO ZONE                   4
 *******************************************************************************
   ATOM N.AT.  SHELL    X(A)      Y(A)      Z(A)      EXAD       N.ELECT.
 *******************************************************************************
    1   35 BR   15     2.768    -3.672     3.591   2.143E-01      35.174
    2   35 BR   15    -2.768     3.672    -3.591   2.143E-01      35.174
    3    8 O     8    -0.182     4.469     3.998   2.535E-01       8.543
    4    8 O     8     0.182    -4.469    -3.998   2.535E-01       8.543
    5    8 O     8     2.919    -3.755    -3.764   2.535E-01       8.609
    6    8 O     8    -2.919     3.755     3.764   2.535E-01       8.609
    7    8 O     8     2.466    -1.149    -1.900   2.535E-01       8.089
    8    8 O     8    -2.466     1.149     1.900   2.535E-01       8.089
    9    8 O     8     3.299    -2.199    -0.166   2.535E-01       8.073
   10    8 O     8    -3.299     2.199     0.166   2.535E-01       8.073
   11    7 N     8     3.389    -1.774    -1.335   3.612E-01       7.313
   12    7 N     8    -3.389     1.774     1.335   3.612E-01       7.313
   13    6 C     8     0.888     4.331     3.422   8.792E-01       5.589
   14    6 C     8    -0.888    -4.331    -3.422   8.792E-01       5.589
   15    6 C     8     2.166     4.591     4.198   8.792E-01       6.126
   16    6 C     8    -2.166    -4.591    -4.198   8.792E-01       6.126
   17    6 C     8     3.419    -2.497    -4.201   8.792E-01       5.701
   18    6 C     8    -3.419     2.497     4.201   8.792E-01       5.701
   19    6 C     8     0.977     3.938     2.017   8.792E-01       6.045
   20    6 C     8    -0.977    -3.938    -2.017   8.792E-01       6.045
   21    6 C     8    -0.201     3.753     1.298   8.792E-01       5.990
   22    6 C     8     0.201    -3.753    -1.298   8.792E-01       5.990
   23    6 C     8    -0.160     3.338    -0.008   8.792E-01       6.055
   24    6 C     8     0.160    -3.338     0.008   8.792E-01       6.055
   25    6 C     8     1.054     3.104    -0.643   8.792E-01       5.936
   26    6 C     8    -1.054    -3.104     0.643   8.792E-01       5.936
   27    6 C     8     2.226     3.324     0.065   8.792E-01       6.053
   28    6 C     8    -2.226    -3.324    -0.065   8.792E-01       6.053
   29    6 C     8     2.194     3.727     1.380   8.792E-01       6.006
   30    6 C     8    -2.194    -3.727    -1.380   8.792E-01       6.006
   31    6 C     8     1.082     2.636    -2.057   8.792E-01       6.170
   32    6 C     8    -1.082    -2.636     2.057   8.792E-01       6.170
   33    6 C     8    -3.063    -0.752    -3.398   8.792E-01       5.967
   34    6 C     8     3.063     0.752     3.398   8.792E-01       5.967
   35    6 C     8    -3.107    -0.487    -2.031   8.792E-01       5.776
   36    6 C     8     3.107     0.487     2.031   8.792E-01       5.776
   37    6 C     8    -1.979    -0.430    -1.240   8.792E-01       6.004
   38    6 C     8     1.979     0.430     1.240   8.792E-01       6.004
   39    6 C     8    -0.742    -0.619    -1.813   8.792E-01       6.025
   40    6 C     8     0.742     0.619     1.813   8.792E-01       6.025
   41    6 C     8    -0.662    -0.870    -3.164   8.792E-01       6.012
   42    6 C     8     0.662     0.870     3.164   8.792E-01       6.012
   43    6 C     8    -1.806    -0.949    -3.935   8.792E-01       6.038
   44    6 C     8     1.806     0.949     3.935   8.792E-01       6.038
   45    1 H     4     2.934     3.875     3.923   8.000E-01       0.871
   46    1 H     4    -2.934    -3.875    -3.923   8.000E-01       0.871
   47    1 H     4     2.694    -1.716    -3.999   8.000E-01       0.883
   48    1 H     4    -2.694     1.716     3.999   8.000E-01       0.883
   49    1 H     4    -1.152     3.948     1.773   8.000E-01       0.927
   50    1 H     4     1.152    -3.948    -1.773   8.000E-01       0.927
   51    1 H     4    -1.085     3.203    -0.551   8.000E-01       0.929
   52    1 H     4     1.085    -3.203     0.551   8.000E-01       0.929
   53    1 H     4     3.181     3.145    -0.411   8.000E-01       0.942
   54    1 H     4    -3.181    -3.145     0.411   8.000E-01       0.942
   55    1 H     4     3.130     3.861     1.904   8.000E-01       0.939
   56    1 H     4    -3.130    -3.861    -1.904   8.000E-01       0.939
   57    1 H     4     0.758     3.430    -2.729   8.000E-01       0.928
   58    1 H     4    -0.758    -3.430     2.729   8.000E-01       0.928
   59    1 H     4     0.403     1.798    -2.203   8.000E-01       0.961
   60    1 H     4    -0.403    -1.798     2.203   8.000E-01       0.961
   61    1 H     4     2.081     2.327    -2.358   8.000E-01       0.933
   62    1 H     4    -2.081    -2.327     2.358   8.000E-01       0.933
   63    1 H     4    -2.094    -0.240    -0.184   8.000E-01       0.905
   64    1 H     4     2.094     0.240     0.184   8.000E-01       0.905
   65    1 H     4     0.152    -0.605    -1.210   8.000E-01       0.927
   66    1 H     4    -0.152     0.605     1.210   8.000E-01       0.927
   67    1 H     4     0.300    -1.034    -3.629   8.000E-01       0.918
   68    1 H     4    -0.300     1.034     3.629   8.000E-01       0.918
   69    1 H     4    -1.701    -1.179    -4.983   8.000E-01       0.920
   70    1 H     4     1.701     1.179     4.983   8.000E-01       0.920
   71    1 H     4     1.967    -3.829    -3.945   8.000E-01       0.724
   72    1 H     4    -1.967     3.829     3.945   8.000E-01       0.724
 *******************************************************************************
 DE(K)                   0.000E+00  ENERGY LEVEL SHIFTING        0.40000
 TOTAL ENERGY -7.0933629071381E+03  CONVERGENCE ON ENER       -5.203E-08
 KIN. ENERGY   7.0806998344611E+03  VIR. COEFF.           1.02089190E+00
 N. OF SCF CYCLES               18  FERMI ENERGY              -0.106E+01
 WEIGHT OF F(I) IN F(I+1)      30
 SHRINK. FACT.(MONKH.)     8  8  8  SHRINKING FACTOR(GILAT NET)        8
 NUMBER OF K POINTS IN THE IBZ 260  CELL VOLUME (A.U.)       5180.542439
 *******************************************************************************

 GCALCO - MAX INDICES DIRECT LATTICE VECTOR    17    14    13
 NO.OF VECTORS CREATED 6999 STARS 3500 RMAX   205.12798 BOHR
 TTTTTTTTTTTTTTTTTTTTTTTTTTTTTT gordsh1     TELAPSE        1.04 TCPU        0.04

 MATRIX SIZE: P(G) 1397482, F(G)  247390, P(G) IRR  351599, F(G) IRR  124502
 MAX G-VECTOR INDEX FOR 1- AND 2-ELECTRON INTEGRALS  51


 CAPPA:IS1  8;IS2  8;IS3  8; K PTS MONK NET 260; SYMMOPS:K SPACE   2;G SPACE   2

 *******************************************************************************
 *                                                                             *
 *                              T O P O N D  2 0 1 4                           *
 *                                                                             *
 *           AN ELECTRON DENSITY TOPOLOGICAL ANALYSIS PROGRAM FOR              *
 *                 SYSTEMS PERIODIC IN N (N=0-3) DIMENSIONS                    *
 *                                                                             *
 *               USER MANUAL BY CARLO GATTI AND SILVIA CASASSA                 *
 *                                                                             *
 *            CNR-ISTM, ISTITUTO DI SCIENZE E TECNOLOGIE MOLECOLARI            *
 *                   VIA GOLGI 19  - I-20133 MILANO - ITALIA                   *
 *                     E-MAIL: c.gatti@istm.cnr.it                             *
 *                                                                             *
 *******************************************************************************

  TOPOND PARAMETER 

  LIM016 [INF24]        =       1000
  LIM015 [INF20]        =        478
  LIM035 [LIM016*INF5]  =    3500000
  NTOMAX [LIM016*INF5]  =    3500000
  INF79  [INF79]        =       6999
  MAXGSTAR [INF2*INF5]  =        384

 *******************************************************************************

CRYSTAL INFORMATION ON THE REFERENCE SYSTEM:

 DIRECT LATTICE VECTOR COMPONENTS (BOHR)
        14.62309   -2.82814    0.00000
         0.00000   18.93884    0.00000
        -2.79105   -5.45578   18.70608

 LATTICE PARAMETERS  (BOHR AND DEGREES) - PRIMITIVE CELL
        A           B           C        ALPHA        BETA       GAMMA       VOLUME
    14.89407    18.93884    19.68433   106.09100    94.96700   100.94600  5180.54244
 *******************************************************************************
 N. OF ATOMS PER CELL       72  COULOMB OVERLAP TOL         (T1) 10** -7
 NUMBER OF SHELLS          478  COULOMB PENETRATION TOL     (T2) 10** -7
 NUMBER OF AO             1006  EXCHANGE OVERLAP TOL        (T3) 10** -7
 N. OF ELECTRONS PER CELL   368 EXCHANGE PSEUDO OVP (F(G))  (T4) 10** -7
 CORE ELECTRONS PER CELL   140  EXCHANGE PSEUDO OVP (P(G))  (T5) 10**-14
 N. OF SYMMETRY OPERATORS    2  POLE ORDER IN MONO ZONE                4
 *******************************************************************************
  ATOM  SHEL    X(AU)     Y(AU)     Z(AU)
 *******************************************************************************
   35 BR  15     5.231    -6.940     6.786
   35 BR  15    -5.231     6.940    -6.786
    8 O    8    -0.345     8.445     7.556
    8 O    8     0.345    -8.445    -7.556
    8 O    8     5.517    -7.096    -7.113
    8 O    8    -5.517     7.096     7.113
    8 O    8     4.660    -2.170    -3.590
    8 O    8    -4.660     2.170     3.590
    8 O    8     6.234    -4.155    -0.313
    8 O    8    -6.234     4.155     0.313
    7 N    8     6.404    -3.352    -2.523
    7 N    8    -6.404     3.352     2.523
    6 C    8     1.678     8.183     6.467
    6 C    8    -1.678    -8.183    -6.467
    6 C    8     4.092     8.677     7.933
    6 C    8    -4.092    -8.677    -7.933
    6 C    8     6.462    -4.719    -7.938
    6 C    8    -6.462     4.719     7.938
    6 C    8     1.846     7.442     3.812
    6 C    8    -1.846    -7.442    -3.812
    6 C    8    -0.380     7.092     2.453
    6 C    8     0.380    -7.092    -2.453
    6 C    8    -0.302     6.309    -0.015
    6 C    8     0.302    -6.309     0.015
    6 C    8     1.991     5.866    -1.214
    6 C    8    -1.991    -5.866     1.214
    6 C    8     4.206     6.282     0.122
    6 C    8    -4.206    -6.282    -0.122
    6 C    8     4.146     7.043     2.608
    6 C    8    -4.146    -7.043    -2.608
    6 C    8     2.045     4.981    -3.887
    6 C    8    -2.045    -4.981     3.887
    6 C    8    -5.788    -1.421    -6.422
    6 C    8     5.788     1.421     6.422
    6 C    8    -5.871    -0.920    -3.838
    6 C    8     5.871     0.920     3.838
    6 C    8    -3.739    -0.812    -2.342
    6 C    8     3.739     0.812     2.342
    6 C    8    -1.403    -1.169    -3.426
    6 C    8     1.403     1.169     3.426
    6 C    8    -1.250    -1.644    -5.979
    6 C    8     1.250     1.644     5.979
    6 C    8    -3.413    -1.793    -7.436
    6 C    8     3.413     1.793     7.436
    1 H    4     5.545     7.322     7.414
    1 H    4    -5.545    -7.322    -7.414
    1 H    4     5.091    -3.244    -7.557
    1 H    4    -5.091     3.244     7.557
    1 H    4    -2.177     7.460     3.351
    1 H    4     2.177    -7.460    -3.351
    1 H    4    -2.051     6.052    -1.042
    1 H    4     2.051    -6.052     1.042
    1 H    4     6.012     5.944    -0.776
    1 H    4    -6.012    -5.944     0.776
    1 H    4     5.915     7.296     3.598
    1 H    4    -5.915    -7.296    -3.598
    1 H    4     1.433     6.482    -5.158
    1 H    4    -1.433    -6.482     5.158
    1 H    4     0.761     3.397    -4.163
    1 H    4    -0.761    -3.397     4.163
    1 H    4     3.932     4.397    -4.456
    1 H    4    -3.932    -4.397     4.456
    1 H    4    -3.957    -0.453    -0.349
    1 H    4     3.957     0.453     0.349
    1 H    4     0.287    -1.144    -2.287
    1 H    4    -0.287     1.144     2.287
    1 H    4     0.567    -1.953    -6.857
    1 H    4    -0.567     1.953     6.857
    1 H    4    -3.214    -2.228    -9.416
    1 H    4     3.214     2.228     9.416
    1 H    4     3.716    -7.236    -7.454
    1 H    4    -3.716     7.236     7.454
 *******************************************************************************
 DE(K)                  0.000E+00  CONVERGENCE ON EIGENVALUES   10**-20
 WEIGHT OF F(I) IN F(I+1)     30%  CONVERGENCE ON ENERGY        10**- 7
 TOTAL ENERGY     -7.09336291E+03  FERMI ENERGY              -1.059E+00
 KIN. ENERGY       7.08069983E+03  VIR. COEFF.           1.02089190E+00
 SHRINK. FACT.(MONKH.)    8  8  8  STARS FOR FOURIER EXP. OF E(K)     1
 SHRINKING FACTOR (GILAT NET)   8  NUMBER OF K POINTS IN THE IBZ    260
 CELL VOLUME (A.U.)        5180.542N. OF SCF CYCLES                  18
 ENERGY LEVEL SHIFTING    0.40000
 *******************************************************************************
 INFORMATION **** TOPAN **** IEXT.LT.2 FOR TOPOND INTERFACED TO CRYSTAL13

 NEIGHBORS OF THE NON-EQUIVALENT ATOMS

 N = NUMBER OF NEIGHBORS AT DISTANCE R
    ATOM  N     R/ANG      R/AU   NEIGHBORS (ATOM LABELS AND CELL INDICES)

   1 BR   1     1.9551     3.6946  15 C    0-1 0
   1 BR   1     2.5026     4.7293  45 H    0-1 0
   1 BR   1     2.7643     5.2237  13 C    0-1 0
   1 BR   1     2.8378     5.3626  17 C    0 0 1
   1 BR   1     2.9225     5.5227  69 H    1 0 1
   1 BR   1     2.9333     5.5432  47 H    0 0 1
   1 BR   1     3.0280     5.7222  55 H    0-1 0
   1 BR   1     3.1450     5.9432  62 H    1 0 0
   1 BR   1     3.2852     6.2081  33 C    1 0 1
   1 BR   1     3.3516     6.3337  43 C    1 0 1
   1 BR   1     3.3910     6.4081  19 C    0-1 0
   1 BR   1     3.4781     6.5727  29 C    0-1 0
   1 BR   1     3.5061     6.6255  52 H    0 0 0
   1 BR   1     3.5225     6.6566   3 O    0-1 0
   1 BR   1     3.6384     6.8756  58 H    0 0 0
   1 BR   1     3.7752     7.1342  54 H    1 0 0
   1 BR   1     3.9366     7.4391  60 H    0 0 0
   1 BR   1     4.0700     7.6913   9 O    0 0 0
   1 BR   1     4.0837     7.7170   2 BR   1 0 1
   1 BR   1     4.1290     7.8026   5 O    0 0 1

   3 O    1     1.2232     2.3116  13 C    0 0 0
   3 O    1     1.8964     3.5836  72 H    0 0 0
   3 O    1     2.3557     4.4516  19 C    0 0 0
   3 O    1     2.3596     4.4589  15 C    0 0 0
   3 O    1     2.3730     4.4843  71 H    0 1 1
   3 O    1     2.4825     4.6912  49 H    0 0 0
   3 O    1     2.5394     4.7988  58 H    0 1 0
   3 O    1     2.5447     4.8088  47 H    0 1 1
   3 O    1     2.7263     5.1520  17 C    0 1 1
   3 O    1     2.7935     5.2790  21 C    0 0 0
   3 O    1     2.8383     5.3635   6 O    0 0 0
   3 O    1     2.8475     5.3809   4 O    0 1 1
   3 O    1     2.8967     5.4740   5 O    0 1 1
   3 O    1     2.9688     5.6102  67 H    0 1 1
   3 O    1     3.1738     5.9977  45 H    0 0 0
   3 O    1     3.4573     6.5334  68 H    0 0 0
   3 O    1     3.4678     6.5531  69 H    0 1 1
   3 O    1     3.5225     6.6566   1 BR   0 1 0
   3 O    1     3.6130     6.8276  29 C    0 0 0
   3 O    1     3.6175     6.8361  32 C    0 1 0

   5 O    1     0.9725     1.8377  71 H    0 0 0
   5 O    1     1.4223     2.6878  17 C    0 0 0
   5 O    1     2.0647     3.9016  47 H    0 0 0
   5 O    1     2.3424     4.4265  33 C    1 0 0
   5 O    1     2.3964     4.5286  15 C    0-1-1
   5 O    1     2.4875     4.7008  46 H    1 0 0
   5 O    1     2.4975     4.7196  70 H    0-1-1
   5 O    1     2.6693     5.0442  50 H    0 0 0
   5 O    1     2.7132     5.1271  45 H    0-1-1
   5 O    1     2.8383     5.3635   4 O    0 0 0
   5 O    1     2.8967     5.4740   3 O    0-1-1
   5 O    1     2.9273     5.5318  13 C    0-1-1
   5 O    1     2.9801     5.6315  56 H    1 0 0
   5 O    1     3.0127     5.6931  35 C    1 0 0
   5 O    1     3.1698     5.9900  11 N    0 0 0
   5 O    1     3.2366     6.1163   7 O    0 0 0
   5 O    1     3.2897     6.2166  43 C    1 0 0
   5 O    1     3.2984     6.2331  44 C    0-1-1
   5 O    1     3.5176     6.6473  69 H    1 0 0
   5 O    1     3.5594     6.7264  16 C    1 0 0

   7 O    1     1.2495     2.3611  11 N    0 0 0
   7 O    1     2.1865     4.1318  47 H    0 0 0
   7 O    1     2.1918     4.1420   9 O    0 0 0
   7 O    1     2.3244     4.3925  35 C    1 0 0
   7 O    1     2.4751     4.6772  65 H    0 0 0
   7 O    1     2.5318     4.7844  64 H    0 0 0
   7 O    1     2.7738     5.2416  67 H    0 0 0
   7 O    1     2.8322     5.3520  17 C    0 0 0
   7 O    1     2.8872     5.4561  33 C    1 0 0
   7 O    1     3.0950     5.8488  50 H    0 0 0
   7 O    1     3.2366     6.1163   5 O    0 0 0
   7 O    1     3.2531     6.1474  39 C    0 0 0
   7 O    1     3.3851     6.3969  41 C    0 0 0
   7 O    1     3.4038     6.4322  10 O    1 0 0
   7 O    1     3.4081     6.4403  71 H    0 0 0
   7 O    1     3.4479     6.5156  37 C    1 0 0
   7 O    1     3.4834     6.5828  52 H    0 0 0
   7 O    1     3.5037     6.6211  22 C    0 0 0
   7 O    1     3.5268     6.6647  61 H    0 0 0
   7 O    1     3.5476     6.7039  38 C    0 0 0

   9 O    1     1.2477     2.3578  11 N    0 0 0
   9 O    1     2.1918     4.1420   7 O    0 0 0
   9 O    1     2.3024     4.3509  35 C    1 0 0
   9 O    1     2.3907     4.5178  63 H    1 0 0
   9 O    1     2.5341     4.7888  52 H    0 0 0
   9 O    1     2.6986     5.0995  37 C    1 0 0
   9 O    1     2.7425     5.1826  64 H    0 0 0
   9 O    1     2.8077     5.3059  54 H    1 0 0
   9 O    1     3.0799     5.8202  12 N    1 0 0
   9 O    1     3.1349     5.9241  10 O    1 0 0
   9 O    1     3.2019     6.0508  50 H    0 0 0
   9 O    1     3.2602     6.1609  38 C    0 0 0
   9 O    1     3.3440     6.3192  24 C    0 0 0
   9 O    1     3.4038     6.4322   8 O    1 0 0
   9 O    1     3.4328     6.4870  28 C    1 0 0
   9 O    1     3.4748     6.5664  36 C    0 0 0
   9 O    1     3.5137     6.6400  33 C    1 0 0
   9 O    1     3.6462     6.8903  22 C    0 0 0
   9 O    1     3.6787     6.9517  65 H    0 0 0
   9 O    1     3.8173     7.2137  62 H    1 0 0

  11 N    1     1.2477     2.3578   9 O    0 0 0
  11 N    1     1.2495     2.3611   7 O    0 0 0
  11 N    1     1.4394     2.7200  35 C    1 0 0
  11 N    1     2.3774     4.4927  37 C    1 0 0
  11 N    1     2.4772     4.6813  33 C    1 0 0
  11 N    1     2.5322     4.7853  63 H    1 0 0
  11 N    1     2.7536     5.2035  47 H    0 0 0
  11 N    1     2.8354     5.3582  64 H    0 0 0
  11 N    1     2.9556     5.5853  17 C    0 0 0
  11 N    1     3.0799     5.8202  10 O    1 0 0
  11 N    1     3.1502     5.9531  50 H    0 0 0
  11 N    1     3.1698     5.9900   5 O    0 0 0
  11 N    1     3.3028     6.2414  52 H    0 0 0
  11 N    1     3.4436     6.5074  65 H    0 0 0
  11 N    1     3.5011     6.6162  12 N    1 0 0
  11 N    1     3.5553     6.7186  54 H    1 0 0
  11 N    1     3.6134     6.8283  71 H    0 0 0
  11 N    1     3.6544     6.9059  39 C    1 0 0
  11 N    1     3.6707     6.9366  38 C    0 0 0
  11 N    1     3.6984     6.9889  43 C    1 0 0

  13 C    1     1.2232     2.3116   3 O    0 0 0
  13 C    1     1.4612     2.7612  19 C    0 0 0
  13 C    1     1.5174     2.8674  15 C    0 0 0
  13 C    1     2.1558     4.0740  45 H    0 0 0
  13 C    1     2.4557     4.6406  21 C    0 0 0
  13 C    1     2.4983     4.7211  29 C    0 0 0
  13 C    1     2.5272     4.7757  17 C    0 1 1
  13 C    1     2.6506     5.0090  49 H    0 0 0
  13 C    1     2.7260     5.1514  47 H    0 1 1
  13 C    1     2.7482     5.1934  55 H    0 0 0
  13 C    1     2.7605     5.2165  71 H    0 1 1
  13 C    1     2.7643     5.2237   1 BR   0 1 0
  13 C    1     2.8817     5.4456  58 H    0 1 0
  13 C    1     2.9273     5.5318   5 O    0 1 1
  13 C    1     2.9448     5.5649  72 H    0 0 0
  13 C    1     3.4776     6.5716  42 C    0 0 0
  13 C    1     3.5105     6.6338  68 H    0 0 0
  13 C    1     3.5413     6.6921  44 C    0 0 0
  13 C    1     3.6096     6.8211  70 H    0 0 0
  13 C    1     3.6982     6.9885   4 O    0 1 1

  15 C    1     1.0864     2.0529  45 H    0 0 0
  15 C    1     1.5174     2.8674  13 C    0 0 0
  15 C    1     1.5176     2.8679  17 C    0 1 1
  15 C    1     1.9551     3.6946   1 BR   0 1 0
  15 C    1     2.1169     4.0003  47 H    0 1 1
  15 C    1     2.3596     4.4589   3 O    0 0 0
  15 C    1     2.3964     4.5286   5 O    0 1 1
  15 C    1     2.5039     4.7317  69 H    1 1 1
  15 C    1     2.5410     4.8018  33 C    1 1 1
  15 C    1     2.5677     4.8523  19 C    0 0 0
  15 C    1     2.5932     4.9005  55 H    0 0 0
  15 C    1     2.7472     5.1914  71 H    0 1 1
  15 C    1     2.8934     5.4678  43 C    1 1 1
  15 C    1     2.9476     5.5702  29 C    0 0 0
  15 C    1     3.5324     6.6753  70 H    0 0 0
  15 C    1     3.5363     6.6826  46 H    1 1 1
  15 C    1     3.5594     6.7264   6 O    1 0 0
  15 C    1     3.6696     6.9346  44 C    0 0 0
  15 C    1     3.8351     7.2472  58 H    0 1 0
  15 C    1     3.8355     7.2481  21 C    0 0 0

  17 C    1     1.0848     2.0499  47 H    0 0 0
  17 C    1     1.4223     2.6878   5 O    0 0 0
  17 C    1     1.5110     2.8554  33 C    1 0 0
  17 C    1     1.5176     2.8679  15 C    0-1-1
  17 C    1     1.9874     3.7556  71 H    0 0 0
  17 C    1     2.1717     4.1040  45 H    0-1-1
  17 C    1     2.5272     4.7757  13 C    0-1-1
  17 C    1     2.5274     4.7762  43 C    1 0 0
  17 C    1     2.5381     4.7963  35 C    1 0 0
  17 C    1     2.7263     5.1520   3 O    0-1-1
  17 C    1     2.7382     5.1745  69 H    1 0 0
  17 C    1     2.8322     5.3520   7 O    0 0 0
  17 C    1     2.8378     5.3626   1 BR   0 0-1
  17 C    1     2.9556     5.5853  11 N    0 0 0
  17 C    1     3.2021     6.0510  46 H    1 0 0
  17 C    1     3.4927     6.6002  67 H    0 0 0
  17 C    1     3.5403     6.6902  70 H    0-1-1
  17 C    1     3.6247     6.8496  50 H    0 0 0
  17 C    1     3.7957     7.1729   4 O    0 0 0
  17 C    1     3.8035     7.1875  41 C    1 0 0

  19 C    1     1.3901     2.6269  29 C    0 0 0
  19 C    1     1.3926     2.6316  21 C    0 0 0
  19 C    1     1.4612     2.7612  13 C    0 0 0
  19 C    1     2.1428     4.0494  49 H    0 0 0
  19 C    1     2.1574     4.0768  55 H    0 0 0
  19 C    1     2.3557     4.4516   3 O    0 0 0
  19 C    1     2.3981     4.5317  27 C    0 0 0
  19 C    1     2.3990     4.5334  23 C    0 0 0
  19 C    1     2.5677     4.8523  15 C    0 0 0
  19 C    1     2.7327     5.1641  45 H    0 0 0
  19 C    1     2.7889     5.2702  25 C    0 0 0
  19 C    1     3.2344     6.1122  52 H    0 1 0
  19 C    1     3.2496     6.1409  58 H    0 1 0
  19 C    1     3.2907     6.2184  42 C    0 0 0
  19 C    1     3.3341     6.3006  40 C    0 0 0
  19 C    1     3.3741     6.3761  53 H    0 0 0
  19 C    1     3.3752     6.3783  51 H    0 0 0
  19 C    1     3.3910     6.4081   1 BR   0 1 0
  19 C    1     3.4989     6.6120  24 C    0 1 0
  19 C    1     3.5199     6.6517  72 H    0 0 0

  21 C    1     1.0806     2.0421  49 H    0 0 0
  21 C    1     1.3711     2.5910  23 C    0 0 0
  21 C    1     1.3926     2.6316  19 C    0 0 0
  21 C    1     2.1225     4.0110  51 H    0 0 0
  21 C    1     2.3966     4.5289  29 C    0 0 0
  21 C    1     2.4003     4.5360  25 C    0 0 0
  21 C    1     2.4557     4.6406  13 C    0 0 0
  21 C    1     2.7560     5.2081  27 C    0 0 0
  21 C    1     2.7935     5.2790   3 O    0 0 0
  21 C    1     3.1493     5.9512  66 H    0 0 0
  21 C    1     3.1822     6.0134  72 H    0 0 0
  21 C    1     3.2223     6.0892  24 C    0 1 0
  21 C    1     3.2277     6.0996  58 H    0 1 0
  21 C    1     3.3135     6.2616  40 C    0 0 0
  21 C    1     3.3424     6.3162  26 C    0 1 0
  21 C    1     3.3873     6.4011  55 H    0 0 0
  21 C    1     3.4080     6.4401  52 H    0 1 0
  21 C    1     3.5037     6.6211   8 O    0 0 0
  21 C    1     3.5409     6.6913  42 C    0 0 0
  21 C    1     3.5829     6.7706  68 H    0 0 0

  23 C    1     1.0816     2.0440  51 H    0 0 0
  23 C    1     1.3711     2.5910  21 C    0 0 0
  23 C    1     1.3891     2.6251  25 C    0 0 0
  23 C    1     2.1281     4.0215  49 H    0 0 0
  23 C    1     2.3869     4.5106  27 C    0 0 0
  23 C    1     2.3990     4.5334  19 C    0 0 0
  23 C    1     2.4970     4.7186  31 C    0 0 0
  23 C    1     2.7398     5.1774  59 H    0 0 0
  23 C    1     2.7601     5.2158  29 C    0 0 0
  23 C    1     2.8734     5.4299  57 H    0 0 0
  23 C    1     2.9921     5.6542  66 H    0 0 0
  23 C    1     3.2223     6.0892  22 C    0 1 0
  23 C    1     3.3440     6.3192  10 O    0 0 0
  23 C    1     3.3606     6.3506  24 C    0 1 0
  23 C    1     3.3710     6.3702  53 H    0 0 0
  23 C    1     3.3951     6.4158  40 C    0 0 0
  23 C    1     3.4007     6.4264  61 H    0 0 0
  23 C    1     3.4989     6.6120  20 C    0 1 0
  23 C    1     3.5101     6.6332  50 H    0 1 0
  23 C    1     3.7087     7.0084   8 O    0 0 0

  25 C    1     1.3867     2.6205  27 C    0 0 0
  25 C    1     1.3891     2.6251  23 C    0 0 0
  25 C    1     1.4902     2.8161  31 C    0 0 0
  25 C    1     2.1324     4.0297  57 H    0 0 0
  25 C    1     2.1364     4.0372  59 H    0 0 0
  25 C    1     2.1409     4.0457  53 H    0 0 0
  25 C    1     2.1430     4.0497  51 H    0 0 0
  25 C    1     2.1451     4.0537  61 H    0 0 0
  25 C    1     2.4003     4.5360  21 C    0 0 0
  25 C    1     2.4040     4.5428  29 C    0 0 0
  25 C    1     2.7889     5.2702  19 C    0 0 0
  25 C    1     3.1579     5.9676  64 H    0 0 0
  25 C    1     3.1793     6.0081  50 H    0 1 0
  25 C    1     3.3361     6.3044  66 H    0 0 0
  25 C    1     3.3424     6.3162  22 C    0 1 0
  25 C    1     3.3719     6.3719  55 H    0 0 0
  25 C    1     3.3782     6.3838  49 H    0 0 0
  25 C    1     3.3986     6.4224  38 C    0 0 0
  25 C    1     3.5078     6.6289  40 C    0 0 0
  25 C    1     3.7463     7.0794  24 C    0 1 0

  27 C    1     1.0821     2.0449  53 H    0 0 0
  27 C    1     1.3759     2.6001  29 C    0 0 0
  27 C    1     1.3867     2.6205  25 C    0 0 0
  27 C    1     2.1187     4.0037  55 H    0 0 0
  27 C    1     2.3869     4.5106  23 C    0 0 0
  27 C    1     2.3981     4.5317  19 C    0 0 0
  27 C    1     2.5065     4.7366  31 C    0 0 0
  27 C    1     2.6238     4.9583  61 H    0 0 0
  27 C    1     2.7560     5.2081  21 C    0 0 0
  27 C    1     3.0899     5.8390  64 H    0 0 0
  27 C    1     3.1271     5.9093  54 H    1 1 0
  27 C    1     3.1336     5.9216  38 C    0 0 0
  27 C    1     3.1576     5.9670  57 H    0 0 0
  27 C    1     3.2855     6.2088  59 H    0 0 0
  27 C    1     3.3684     6.3654  56 H    1 1 0
  27 C    1     3.3702     6.3687  51 H    0 0 0
  27 C    1     3.4328     6.4870  10 O    1 0 0
  27 C    1     3.4774     6.5713  50 H    0 1 0
  27 C    1     3.5466     6.7021  40 C    0 0 0
  27 C    1     3.5629     6.7329  36 C    0 0 0

  29 C    1     1.0810     2.0429  55 H    0 0 0
  29 C    1     1.3759     2.6001  27 C    0 0 0
  29 C    1     1.3901     2.6269  19 C    0 0 0
  29 C    1     2.1259     4.0173  53 H    0 0 0
  29 C    1     2.3966     4.5289  21 C    0 0 0
  29 C    1     2.4040     4.5428  25 C    0 0 0
  29 C    1     2.4983     4.7211  13 C    0 0 0
  29 C    1     2.6531     5.0136  45 H    0 0 0
  29 C    1     2.7601     5.2158  23 C    0 0 0
  29 C    1     2.9476     5.5702  15 C    0 0 0
  29 C    1     3.0422     5.7489  54 H    1 1 0
  29 C    1     3.3069     6.2491  38 C    0 0 0
  29 C    1     3.3762     6.3801  49 H    0 0 0
  29 C    1     3.3881     6.4026  52 H    0 1 0
  29 C    1     3.4286     6.4791  36 C    0 0 0
  29 C    1     3.4576     6.5340  40 C    0 0 0
  29 C    1     3.4781     6.5727   1 BR   0 1 0
  29 C    1     3.6130     6.8276   3 O    0 0 0
  29 C    1     3.6878     6.9689  64 H    0 0 0
  29 C    1     3.6983     6.9887  34 C    0 0 0

  31 C    1     1.0874     2.0549  61 H    0 0 0
  31 C    1     1.0890     2.0579  59 H    0 0 0
  31 C    1     1.0896     2.0591  57 H    0 0 0
  31 C    1     1.4902     2.8161  25 C    0 0 0
  31 C    1     2.4970     4.7186  23 C    0 0 0
  31 C    1     2.5065     4.7366  27 C    0 0 0
  31 C    1     2.6996     5.1015  51 H    0 0 0
  31 C    1     2.7159     5.1322  53 H    0 0 0
  31 C    1     3.4337     6.4887  64 H    0 0 0
  31 C    1     3.4506     6.5206  50 H    0 1 0
  31 C    1     3.4770     6.5707  65 H    0 0 0
  31 C    1     3.6175     6.8361   4 O    0 1 0
  31 C    1     3.7393     7.0662  39 C    0 0 0
  31 C    1     3.7620     7.1092  21 C    0 0 0
  31 C    1     3.7734     7.1306  29 C    0 0 0
  31 C    1     3.8146     7.2085  22 C    0 1 0
  31 C    1     3.8222     7.2229  70 H    0 0-1
  31 C    1     3.8834     7.3386  14 C    0 1 0
  31 C    1     4.0161     7.5894  20 C    0 1 0
  31 C    1     4.0327     7.6206   7 O    0 0 0

  33 C    1     1.3808     2.6093  43 C    0 0 0
  33 C    1     1.3937     2.6337  35 C    0 0 0
  33 C    1     1.5110     2.8554  17 C   -1 0 0
  33 C    1     2.1325     4.0299  69 H    0 0 0
  33 C    1     2.1378     4.0399  47 H   -1 0 0
  33 C    1     2.3424     4.4265   5 O   -1 0 0
  33 C    1     2.4154     4.5644  41 C    0 0 0
  33 C    1     2.4371     4.6055  37 C    0 0 0
  33 C    1     2.4772     4.6813  11 N   -1 0 0
  33 C    1     2.5410     4.8018  15 C   -1-1-1
  33 C    1     2.7813     5.2559  45 H   -1-1-1
  33 C    1     2.8135     5.3167  39 C    0 0 0
  33 C    1     2.8872     5.4561   7 O   -1 0 0
  33 C    1     3.1689     5.9884  46 H    0 0 0
  33 C    1     3.1832     6.0155  71 H   -1 0 0
  33 C    1     3.2852     6.2081   1 BR  -1 0-1
  33 C    1     3.3826     6.3923  67 H    0 0 0
  33 C    1     3.3956     6.4168  63 H    0 0 0
  33 C    1     3.4501     6.5197  56 H    0 0 0
  33 C    1     3.5137     6.6400   9 O   -1 0 0

  35 C    1     1.3791     2.6061  37 C    0 0 0
  35 C    1     1.3937     2.6337  33 C    0 0 0
  35 C    1     1.4394     2.7200  11 N   -1 0 0
  35 C    1     2.1204     4.0069  63 H    0 0 0
  35 C    1     2.3024     4.3509   9 O   -1 0 0
  35 C    1     2.3244     4.3925   7 O   -1 0 0
  35 C    1     2.3518     4.4443  43 C    0 0 0
  35 C    1     2.3780     4.4938  39 C    0 0 0
  35 C    1     2.5381     4.7963  17 C   -1 0 0
  35 C    1     2.7218     5.1435  41 C    0 0 0
  35 C    1     2.7748     5.2436  47 H   -1 0 0
  35 C    1     3.0127     5.6931   5 O   -1 0 0
  35 C    1     3.3420     6.3155  69 H    0 0 0
  35 C    1     3.3626     6.3543  65 H    0 0 0
  35 C    1     3.3769     6.3814  56 H    0 0 0
  35 C    1     3.4286     6.4791  30 C    0 0 0
  35 C    1     3.4748     6.5664  10 O    0 0 0
  35 C    1     3.5629     6.7329  28 C    0 0 0
  35 C    1     3.6106     6.8230  54 H    0 0 0
  35 C    1     3.7645     7.1138  71 H   -1 0 0

  37 C    1     1.0783     2.0377  63 H    0 0 0
  37 C    1     1.3759     2.6000  39 C    0 0 0
  37 C    1     1.3791     2.6061  35 C    0 0 0
  37 C    1     2.1381     4.0404  65 H    0 0 0
  37 C    1     2.3730     4.4842  41 C    0 0 0
  37 C    1     2.3774     4.4927  11 N   -1 0 0
  37 C    1     2.4371     4.6055  33 C    0 0 0
  37 C    1     2.6986     5.0995   9 O   -1 0 0
  37 C    1     2.7503     5.1973  43 C    0 0 0
  37 C    1     3.1336     5.9216  28 C    0 0 0
  37 C    1     3.2262     6.0966  66 H    0 0 0
  37 C    1     3.2602     6.1609  10 O    0 0 0
  37 C    1     3.3069     6.2491  30 C    0 0 0
  37 C    1     3.3565     6.3428  67 H    0 0 0
  37 C    1     3.3977     6.4208  54 H    0 0 0
  37 C    1     3.3986     6.4224  26 C    0 0 0
  37 C    1     3.4001     6.4253  59 H    0 0 0
  37 C    1     3.4479     6.5156   7 O   -1 0 0
  37 C    1     3.5476     6.7039   8 O    0 0 0
  37 C    1     3.6707     6.9366  12 N    0 0 0

  39 C    1     1.0787     2.0385  65 H    0 0 0
  39 C    1     1.3759     2.6000  37 C    0 0 0
  39 C    1     1.3764     2.6010  41 C    0 0 0
  39 C    1     2.1344     4.0335  67 H    0 0 0
  39 C    1     2.1501     4.0630  63 H    0 0 0
  39 C    1     2.3780     4.4938  35 C    0 0 0
  39 C    1     2.3964     4.5285  43 C    0 0 0
  39 C    1     2.7022     5.1065  59 H    0 0 0
  39 C    1     2.8135     5.3167  33 C    0 0 0
  39 C    1     3.2531     6.1474   7 O    0 0 0
  39 C    1     3.3135     6.2616  22 C    0 0 0
  39 C    1     3.3145     6.2634  66 H    0 0 0
  39 C    1     3.3341     6.3006  20 C    0 0 0
  39 C    1     3.3584     6.3464  69 H    0 0 0
  39 C    1     3.3951     6.4158  24 C    0 0 0
  39 C    1     3.4576     6.5340  30 C    0 0 0
  39 C    1     3.5078     6.6289  26 C    0 0 0
  39 C    1     3.5466     6.7021  28 C    0 0 0
  39 C    1     3.5735     6.7529  64 H    0 0 0
  39 C    1     3.6544     6.9059  11 N   -1 0 0

  41 C    1     1.0808     2.0425  67 H    0 0 0
  41 C    1     1.3764     2.6010  39 C    0 0 0
  41 C    1     1.3820     2.6116  43 C    0 0 0
  41 C    1     2.1172     4.0010  69 H    0 0 0
  41 C    1     2.1330     4.0308  65 H    0 0 0
  41 C    1     2.3730     4.4842  37 C    0 0 0
  41 C    1     2.4154     4.5644  33 C    0 0 0
  41 C    1     2.7218     5.1435  35 C    0 0 0
  41 C    1     3.0287     5.7235  59 H    0 0 0
  41 C    1     3.2907     6.2184  20 C    0 0 0
  41 C    1     3.3653     6.3596  63 H    0 0 0
  41 C    1     3.3851     6.3969   7 O    0 0 0
  41 C    1     3.4776     6.5716  14 C    0 0 0
  41 C    1     3.5409     6.6913  22 C    0 0 0
  41 C    1     3.5601     6.7276  47 H    0 0 0
  41 C    1     3.7003     6.9925  30 C    0 0 0
  41 C    1     3.7081     7.0073  72 H    0-1-1
  41 C    1     3.7899     7.1618   4 O    0 0 0
  41 C    1     3.8035     7.1875  17 C   -1 0 0
  41 C    1     3.8133     7.2062   3 O    0-1-1

  43 C    1     1.0778     2.0368  69 H    0 0 0
  43 C    1     1.3808     2.6093  33 C    0 0 0
  43 C    1     1.3820     2.6116  41 C    0 0 0
  43 C    1     2.1299     4.0250  67 H    0 0 0
  43 C    1     2.3518     4.4443  35 C    0 0 0
  43 C    1     2.3964     4.5285  39 C    0 0 0
  43 C    1     2.5274     4.7762  17 C   -1 0 0
  43 C    1     2.6723     5.0500  45 H   -1-1-1
  43 C    1     2.7503     5.1973  37 C    0 0 0
  43 C    1     2.8934     5.4678  15 C   -1-1-1
  43 C    1     3.1358     5.9258  46 H    0 0 0
  43 C    1     3.2897     6.2166   5 O   -1 0 0
  43 C    1     3.2984     6.2331   6 O    0-1-1
  43 C    1     3.3200     6.2739  47 H   -1 0 0
  43 C    1     3.3516     6.3337   1 BR  -1 0-1
  43 C    1     3.3713     6.3709  72 H    0-1-1
  43 C    1     3.3729     6.3739  65 H    0 0 0
  43 C    1     3.5413     6.6921  14 C    0 0 0
  43 C    1     3.6469     6.8917  20 C    0 0 0
  43 C    1     3.6696     6.9346  16 C    0 0 0

  45 H    1     1.0864     2.0529  15 C    0 0 0
  45 H    1     1.9931     3.7664  69 H    1 1 1
  45 H    1     2.0288     3.8339  55 H    0 0 0
  45 H    1     2.1558     4.0740  13 C    0 0 0
  45 H    1     2.1717     4.1040  17 C    0 1 1
  45 H    1     2.4875     4.7008   6 O    1 0 0
  45 H    1     2.5026     4.7293   1 BR   0 1 0
  45 H    1     2.6531     5.0136  29 C    0 0 0
  45 H    1     2.6723     5.0500  43 C    1 1 1
  45 H    1     2.7132     5.1271   5 O    0 1 1
  45 H    1     2.7327     5.1641  19 C    0 0 0
  45 H    1     2.7813     5.2559  33 C    1 1 1
  45 H    1     2.9702     5.6129  46 H    1 1 1
  45 H    1     3.0397     5.7443  47 H    0 1 1
  45 H    1     3.1358     5.9258  44 C    0 0 0
  45 H    1     3.1483     5.9494  70 H    0 0 0
  45 H    1     3.1689     5.9884  34 C    0 0 0
  45 H    1     3.1738     5.9977   3 O    0 0 0
  45 H    1     3.2021     6.0510  18 C    1 0 0
  45 H    1     3.2289     6.1016  71 H    0 1 1

  47 H    1     1.0848     2.0499  17 C    0 0 0
  47 H    1     2.0647     3.9016   5 O    0 0 0
  47 H    1     2.1169     4.0003  15 C    0-1-1
  47 H    1     2.1378     4.0399  33 C    1 0 0
  47 H    1     2.1865     4.1318   7 O    0 0 0
  47 H    1     2.2350     4.2235  71 H    0 0 0
  47 H    1     2.5166     4.7557  67 H    0 0 0
  47 H    1     2.5447     4.8088   3 O    0-1-1
  47 H    1     2.7260     5.1514  13 C    0-1-1
  47 H    1     2.7536     5.2035  11 N    0 0 0
  47 H    1     2.7748     5.2436  35 C    1 0 0
  47 H    1     2.9333     5.5432   1 BR   0 0-1
  47 H    1     3.0397     5.7443  45 H    0-1-1
  47 H    1     3.3200     6.2739  43 C    1 0 0
  47 H    1     3.5088     6.6306  50 H    0 0 0
  47 H    1     3.5601     6.7276  41 C    0 0 0
  47 H    1     3.6148     6.8310  69 H    1 0 0
  47 H    1     3.7264     7.0418   4 O    0 0 0
  47 H    1     3.9106     7.3900   9 O    0 0 0
  47 H    1     3.9155     7.3992  58 H    0 0-1

  49 H    1     1.0806     2.0421  21 C    0 0 0
  49 H    1     2.1281     4.0215  23 C    0 0 0
  49 H    1     2.1428     4.0494  19 C    0 0 0
  49 H    1     2.3222     4.3883  72 H    0 0 0
  49 H    1     2.4419     4.6145  51 H    0 0 0
  49 H    1     2.4825     4.6912   3 O    0 0 0
  49 H    1     2.6506     5.0090  13 C    0 0 0
  49 H    1     2.6693     5.0442   6 O    0 0 0
  49 H    1     2.8391     5.3652  58 H    0 1 0
  49 H    1     3.0950     5.8488   8 O    0 0 0
  49 H    1     3.1502     5.9531  12 N    0 0 0
  49 H    1     3.1793     6.0081  26 C    0 1 0
  49 H    1     3.2019     6.0508  10 O    0 0 0
  49 H    1     3.3762     6.3801  29 C    0 0 0
  49 H    1     3.3782     6.3838  25 C    0 0 0
  49 H    1     3.4506     6.5206  32 C    0 1 0
  49 H    1     3.4774     6.5713  28 C    0 1 0
  49 H    1     3.5088     6.6306  48 H    0 0 0
  49 H    1     3.5101     6.6332  24 C    0 1 0
  49 H    1     3.5339     6.6782  66 H    0 0 0

  51 H    1     1.0816     2.0440  23 C    0 0 0
  51 H    1     2.1225     4.0110  21 C    0 0 0
  51 H    1     2.1430     4.0497  25 C    0 0 0
  51 H    1     2.4419     4.6145  49 H    0 0 0
  51 H    1     2.5341     4.7888  10 O    0 0 0
  51 H    1     2.6297     4.9695  59 H    0 0 0
  51 H    1     2.6996     5.1015  31 C    0 0 0
  51 H    1     2.8626     5.4095  57 H    0 0 0
  51 H    1     3.2344     6.1122  20 C    0 1 0
  51 H    1     3.2740     6.1869  66 H    0 0 0
  51 H    1     3.3028     6.2414  12 N    0 0 0
  51 H    1     3.3702     6.3687  27 C    0 0 0
  51 H    1     3.3752     6.3783  19 C    0 0 0
  51 H    1     3.3881     6.4026  30 C    0 1 0
  51 H    1     3.4080     6.4401  22 C    0 1 0
  51 H    1     3.4834     6.5828   8 O    0 0 0
  51 H    1     3.5061     6.6255   2 BR   0 0 0
  51 H    1     3.6057     6.8138  63 H    0 0 0
  51 H    1     3.7085     7.0080  28 C    0 1 0
  51 H    1     3.7390     7.0657  24 C    0 1 0

  53 H    1     1.0821     2.0449  27 C    0 0 0
  53 H    1     2.1259     4.0173  29 C    0 0 0
  53 H    1     2.1409     4.0457  25 C    0 0 0
  53 H    1     2.3819     4.5012  61 H    0 0 0
  53 H    1     2.4233     4.5794  55 H    0 0 0
  53 H    1     2.5637     4.8446  56 H    1 1 0
  53 H    1     2.7159     5.1322  31 C    0 0 0
  53 H    1     2.7494     5.1956  54 H    1 1 0
  53 H    1     2.8077     5.3059  10 O    1 0 0
  53 H    1     3.0422     5.7489  30 C    1 1 0
  53 H    1     3.1271     5.9093  28 C    1 1 0
  53 H    1     3.1593     5.9703  64 H    0 0 0
  53 H    1     3.3657     6.3603  57 H    0 0 0
  53 H    1     3.3710     6.3702  23 C    0 0 0
  53 H    1     3.3741     6.3761  19 C    0 0 0
  53 H    1     3.3977     6.4208  38 C    0 0 0
  53 H    1     3.5553     6.7186  12 N    1 0 0
  53 H    1     3.5706     6.7474  59 H    0 0 0
  53 H    1     3.6106     6.8230  36 C    0 0 0
  53 H    1     3.7607     7.1066  51 H    1 0 0

  55 H    1     1.0810     2.0429  29 C    0 0 0
  55 H    1     2.0288     3.8339  45 H    0 0 0
  55 H    1     2.1187     4.0037  27 C    0 0 0
  55 H    1     2.1574     4.0768  19 C    0 0 0
  55 H    1     2.4233     4.5794  53 H    0 0 0
  55 H    1     2.5637     4.8446  54 H    1 1 0
  55 H    1     2.5932     4.9005  15 C    0 0 0
  55 H    1     2.7482     5.1934  13 C    0 0 0
  55 H    1     2.9801     5.6315   6 O    1 0 0
  55 H    1     3.0280     5.7222   1 BR   0 1 0
  55 H    1     3.3684     6.3654  28 C    1 1 0
  55 H    1     3.3719     6.3719  25 C    0 0 0
  55 H    1     3.3769     6.3814  36 C    0 0 0
  55 H    1     3.3873     6.4011  21 C    0 0 0
  55 H    1     3.3880     6.4024  69 H    1 1 1
  55 H    1     3.4501     6.5197  34 C    0 0 0
  55 H    1     3.4725     6.5621  62 H    1 1 0
  55 H    1     3.6714     6.9379  72 H    1 0 0
  55 H    1     3.6797     6.9536  38 C    0 0 0
  55 H    1     3.7351     7.0583  49 H    1 0 0

  57 H    1     1.0896     2.0591  31 C    0 0 0
  57 H    1     1.7515     3.3099  59 H    0 0 0
  57 H    1     1.7615     3.3288  61 H    0 0 0
  57 H    1     2.1324     4.0297  25 C    0 0 0
  57 H    1     2.5394     4.7988   4 O    0 1 0
  57 H    1     2.8391     5.3652  50 H    0 1 0
  57 H    1     2.8626     5.4095  51 H    0 0 0
  57 H    1     2.8734     5.4299  23 C    0 0 0
  57 H    1     2.8817     5.4456  14 C    0 1 0
  57 H    1     3.1576     5.9670  27 C    0 0 0
  57 H    1     3.2277     6.0996  22 C    0 1 0
  57 H    1     3.2496     6.1409  20 C    0 1 0
  57 H    1     3.2513     6.1440  71 H    0 1 0
  57 H    1     3.3227     6.2790  70 H    0 0-1
  57 H    1     3.3657     6.3603  53 H    0 0 0
  57 H    1     3.5990     6.8012  68 H    0 0-1
  57 H    1     3.6384     6.8756   2 BR   0 0 0
  57 H    1     3.7133     7.0171   5 O    0 1 0
  57 H    1     3.8351     7.2472  16 C    0 1 0
  57 H    1     3.9155     7.3992  48 H    0 0-1

  59 H    1     1.0890     2.0579  31 C    0 0 0
  59 H    1     1.7515     3.3099  57 H    0 0 0
  59 H    1     1.7663     3.3377  61 H    0 0 0
  59 H    1     2.1364     4.0372  25 C    0 0 0
  59 H    1     2.6122     4.9363  65 H    0 0 0
  59 H    1     2.6297     4.9695  51 H    0 0 0
  59 H    1     2.7022     5.1065  39 C    0 0 0
  59 H    1     2.7398     5.1774  23 C    0 0 0
  59 H    1     3.0287     5.7235  41 C    0 0 0
  59 H    1     3.1719     5.9940  67 H    0 0 0
  59 H    1     3.2855     6.2088  27 C    0 0 0
  59 H    1     3.3146     6.2636  64 H    0 0 0
  59 H    1     3.4001     6.4253  37 C    0 0 0
  59 H    1     3.5706     6.7474  53 H    0 0 0
  59 H    1     3.6098     6.8215   7 O    0 0 0
  59 H    1     3.6574     6.9114  66 H    0 0 0
  59 H    1     3.8022     7.1852  63 H    0 0 0
  59 H    1     3.9272     7.4213  43 C    0 0 0
  59 H    1     3.9366     7.4391   2 BR   0 0 0
  59 H    1     4.0254     7.6068  38 C    0 0 0

  61 H    1     1.0874     2.0549  31 C    0 0 0
  61 H    1     1.7615     3.3288  57 H    0 0 0
  61 H    1     1.7663     3.3377  59 H    0 0 0
  61 H    1     2.1451     4.0537  25 C    0 0 0
  61 H    1     2.3819     4.5012  53 H    0 0 0
  61 H    1     2.6238     4.9583  27 C    0 0 0
  61 H    1     3.1450     5.9432   2 BR   1 0 0
  61 H    1     3.2820     6.2021  70 H    0 0-1
  61 H    1     3.2896     6.2165  64 H    0 0 0
  61 H    1     3.4007     6.4264  23 C    0 0 0
  61 H    1     3.4725     6.5621  56 H    1 1 0
  61 H    1     3.5268     6.6647   7 O    0 0 0
  61 H    1     3.6928     6.9783  65 H    0 0 0
  61 H    1     3.7489     7.0844  51 H    0 0 0
  61 H    1     3.8173     7.2137  10 O    1 0 0
  61 H    1     3.9045     7.3785  50 H    0 1 0
  61 H    1     3.9071     7.3833  46 H    1 1 0
  61 H    1     3.9930     7.5457  29 C    0 0 0
  61 H    1     4.0098     7.5775  67 H    0 0 0
  61 H    1     4.0684     7.6882  38 C    0 0 0

  63 H    1     1.0783     2.0377  37 C    0 0 0
  63 H    1     2.1204     4.0069  35 C    0 0 0
  63 H    1     2.1501     4.0630  39 C    0 0 0
  63 H    1     2.3907     4.5178   9 O   -1 0 0
  63 H    1     2.4959     4.7167  65 H    0 0 0
  63 H    1     2.5318     4.7844   8 O    0 0 0
  63 H    1     2.5322     4.7853  11 N   -1 0 0
  63 H    1     2.5355     4.7915  66 H    0 0 0
  63 H    1     2.7425     5.1826  10 O    0 0 0
  63 H    1     2.8354     5.3582  12 N    0 0 0
  63 H    1     3.0899     5.8390  28 C    0 0 0
  63 H    1     3.1579     5.9676  26 C    0 0 0
  63 H    1     3.1593     5.9703  54 H    0 0 0
  63 H    1     3.2896     6.2165  62 H    0 0 0
  63 H    1     3.3146     6.2636  60 H    0 0 0
  63 H    1     3.3653     6.3596  41 C    0 0 0
  63 H    1     3.3956     6.4168  33 C    0 0 0
  63 H    1     3.4337     6.4887  32 C    0 0 0
  63 H    1     3.5735     6.7529  40 C    0 0 0
  63 H    1     3.6057     6.8138  51 H    0 0 0

  65 H    1     1.0787     2.0385  39 C    0 0 0
  65 H    1     2.1330     4.0308  41 C    0 0 0
  65 H    1     2.1381     4.0404  37 C    0 0 0
  65 H    1     2.4608     4.6503  67 H    0 0 0
  65 H    1     2.4751     4.6772   7 O    0 0 0
  65 H    1     2.4959     4.7167  63 H    0 0 0
  65 H    1     2.5355     4.7915  64 H    0 0 0
  65 H    1     2.6122     4.9363  59 H    0 0 0
  65 H    1     2.7231     5.1459  66 H    0 0 0
  65 H    1     2.9921     5.6542  24 C    0 0 0
  65 H    1     3.1493     5.9512  22 C    0 0 0
  65 H    1     3.2262     6.0966  38 C    0 0 0
  65 H    1     3.2740     6.1869  52 H    0 0 0
  65 H    1     3.3145     6.2634  40 C    0 0 0
  65 H    1     3.3361     6.3044  26 C    0 0 0
  65 H    1     3.3626     6.3543  35 C    0 0 0
  65 H    1     3.3729     6.3739  43 C    0 0 0
  65 H    1     3.4436     6.5074  11 N    0 0 0
  65 H    1     3.4770     6.5707  31 C    0 0 0
  65 H    1     3.5339     6.6782  50 H    0 0 0

  67 H    1     1.0808     2.0425  41 C    0 0 0
  67 H    1     2.1299     4.0250  43 C    0 0 0
  67 H    1     2.1344     4.0335  39 C    0 0 0
  67 H    1     2.4202     4.5736  69 H    0 0 0
  67 H    1     2.4608     4.6503  65 H    0 0 0
  67 H    1     2.5166     4.7557  47 H    0 0 0
  67 H    1     2.7738     5.2416   7 O    0 0 0
  67 H    1     2.9688     5.6102   3 O    0-1-1
  67 H    1     3.1719     5.9940  59 H    0 0 0
  67 H    1     3.2697     6.1788  71 H    0 0 0
  67 H    1     3.3459     6.3229  72 H    0-1-1
  67 H    1     3.3565     6.3428  37 C    0 0 0
  67 H    1     3.3826     6.3923  33 C    0 0 0
  67 H    1     3.4573     6.5334   4 O    0 0 0
  67 H    1     3.4927     6.6002  17 C    0 0 0
  67 H    1     3.5105     6.6338  14 C    0 0 0
  67 H    1     3.5583     6.7242  50 H    0 0 0
  67 H    1     3.5587     6.7250  20 C    0 0 0
  67 H    1     3.5829     6.7706  22 C    0 0 0
  67 H    1     3.5990     6.8012  58 H    0 0-1

  69 H    1     1.0778     2.0368  43 C    0 0 0
  69 H    1     1.9931     3.7664  45 H   -1-1-1
  69 H    1     2.1172     4.0010  41 C    0 0 0
  69 H    1     2.1325     4.0299  33 C    0 0 0
  69 H    1     2.4202     4.5736  67 H    0 0 0
  69 H    1     2.4975     4.7196   6 O    0-1-1
  69 H    1     2.5039     4.7317  15 C   -1-1-1
  69 H    1     2.6335     4.9765  72 H    0-1-1
  69 H    1     2.7382     5.1745  17 C   -1 0 0
  69 H    1     2.9225     5.5227   1 BR  -1 0-1
  69 H    1     3.1483     5.9494  46 H    0 0 0
  69 H    1     3.2820     6.2021  62 H    0 0-1
  69 H    1     3.3227     6.2790  58 H    0 0-1
  69 H    1     3.3420     6.3155  35 C    0 0 0
  69 H    1     3.3584     6.3464  39 C    0 0 0
  69 H    1     3.3880     6.4024  55 H   -1-1-1
  69 H    1     3.4678     6.5531   3 O    0-1-1
  69 H    1     3.5176     6.6473   5 O   -1 0 0
  69 H    1     3.5324     6.6753  16 C    0 0 0
  69 H    1     3.5403     6.6902  18 C    0-1-1

  71 H    1     0.9725     1.8377   5 O    0 0 0
  71 H    1     1.8964     3.5836   4 O    0 0 0
  71 H    1     1.9874     3.7556  17 C    0 0 0
  71 H    1     2.2350     4.2235  47 H    0 0 0
  71 H    1     2.3222     4.3883  50 H    0 0 0
  71 H    1     2.3730     4.4843   3 O    0-1-1
  71 H    1     2.6335     4.9765  70 H    0-1-1
  71 H    1     2.7472     5.1914  15 C    0-1-1
  71 H    1     2.7605     5.2165  13 C    0-1-1
  71 H    1     2.9448     5.5649  14 C    0 0 0
  71 H    1     3.1822     6.0134  22 C    0 0 0
  71 H    1     3.1832     6.0155  33 C    1 0 0
  71 H    1     3.2166     6.0785  72 H    0-1-1
  71 H    1     3.2289     6.1016  45 H    0-1-1
  71 H    1     3.2293     6.1025  46 H    1 0 0
  71 H    1     3.2513     6.1440  57 H    0-1 0
  71 H    1     3.2697     6.1788  67 H    0 0 0
  71 H    1     3.3459     6.3229  68 H    0-1-1
  71 H    1     3.3713     6.3709  44 C    0-1-1
  71 H    1     3.4081     6.4403   7 O    0 0 0

 CLUSTERS AROUND EACH OF THE NON-EQUIVALENT ATOMS

 NON-EQUIV. ATOM       1 BR(N.      1 IN THE UNIT CELL), CLUSTER OF      1 ATOMS
 NEW  OLD   CELL  AT. NU.         COORD.(AU)             DISTANCE (ANG)
     1      15       0    -1     0    6        4.092 -10.262   7.933          1.955

 NON-EQUIV. ATOM       2 O (N.      3 IN THE UNIT CELL), CLUSTER OF      2 ATOMS
 NEW  OLD   CELL  AT. NU.         COORD.(AU)             DISTANCE (ANG)
     1      13       0     0     0    6        1.678   8.183   6.467          1.223
     2      72       0     0     0    1       -3.716   7.236   7.454          1.896

 NON-EQUIV. ATOM       3 O (N.      5 IN THE UNIT CELL), CLUSTER OF      2 ATOMS
 NEW  OLD   CELL  AT. NU.         COORD.(AU)             DISTANCE (ANG)
     1      71       0     0     0    1        3.716  -7.236  -7.454          0.972
     2      17       0     0     0    6        6.462  -4.719  -7.938          1.422

 NON-EQUIV. ATOM       4 O (N.      7 IN THE UNIT CELL), CLUSTER OF      1 ATOMS
 NEW  OLD   CELL  AT. NU.         COORD.(AU)             DISTANCE (ANG)
     1      11       0     0     0    7        6.404  -3.352  -2.523          1.249

 NON-EQUIV. ATOM       5 O (N.      9 IN THE UNIT CELL), CLUSTER OF      1 ATOMS
 NEW  OLD   CELL  AT. NU.         COORD.(AU)             DISTANCE (ANG)
     1      11       0     0     0    7        6.404  -3.352  -2.523          1.248

 NON-EQUIV. ATOM       6 N (N.     11 IN THE UNIT CELL), CLUSTER OF      3 ATOMS
 NEW  OLD   CELL  AT. NU.         COORD.(AU)             DISTANCE (ANG)
     1       9       0     0     0    8        6.234  -4.155  -0.313          1.248
     2       7       0     0     0    8        4.660  -2.170  -3.590          1.249
     3      35       1     0     0    6        8.752  -3.748  -3.838          1.439

 NON-EQUIV. ATOM       7 C (N.     13 IN THE UNIT CELL), CLUSTER OF      3 ATOMS
 NEW  OLD   CELL  AT. NU.         COORD.(AU)             DISTANCE (ANG)
     1       3       0     0     0    8       -0.345   8.445   7.556          1.223
     2      19       0     0     0    6        1.846   7.442   3.812          1.461
     3      15       0     0     0    6        4.092   8.677   7.933          1.517

 NON-EQUIV. ATOM       8 C (N.     15 IN THE UNIT CELL), CLUSTER OF      4 ATOMS
 NEW  OLD   CELL  AT. NU.         COORD.(AU)             DISTANCE (ANG)
     1      45       0     0     0    1        5.545   7.322   7.414          1.086
     2      13       0     0     0    6        1.678   8.183   6.467          1.517
     3      17       0     1     1    6        3.671   8.764  10.768          1.518
     4       1       0     1     0   35        5.231  11.999   6.786          1.955

 NON-EQUIV. ATOM       9 C (N.     17 IN THE UNIT CELL), CLUSTER OF      5 ATOMS
 NEW  OLD   CELL  AT. NU.         COORD.(AU)             DISTANCE (ANG)
     1      47       0     0     0    1        5.091  -3.244  -7.557          1.085
     2       5       0     0     0    8        5.517  -7.096  -7.113          1.422
     3      33       1     0     0    6        8.835  -4.250  -6.422          1.511
     4      15       0    -1    -1    6        6.883  -4.807 -10.774          1.518
     5      71       0     0     0    1        3.716  -7.236  -7.454          1.987

 NON-EQUIV. ATOM      10 C (N.     19 IN THE UNIT CELL), CLUSTER OF      3 ATOMS
 NEW  OLD   CELL  AT. NU.         COORD.(AU)             DISTANCE (ANG)
     1      29       0     0     0    6        4.146   7.043   2.608          1.390
     2      21       0     0     0    6       -0.380   7.092   2.453          1.393
     3      13       0     0     0    6        1.678   8.183   6.467          1.461

 NON-EQUIV. ATOM      11 C (N.     21 IN THE UNIT CELL), CLUSTER OF      3 ATOMS
 NEW  OLD   CELL  AT. NU.         COORD.(AU)             DISTANCE (ANG)
     1      49       0     0     0    1       -2.177   7.460   3.351          1.081
     2      23       0     0     0    6       -0.302   6.309  -0.015          1.371
     3      19       0     0     0    6        1.846   7.442   3.812          1.393

 NON-EQUIV. ATOM      12 C (N.     23 IN THE UNIT CELL), CLUSTER OF      3 ATOMS
 NEW  OLD   CELL  AT. NU.         COORD.(AU)             DISTANCE (ANG)
     1      51       0     0     0    1       -2.051   6.052  -1.042          1.082
     2      21       0     0     0    6       -0.380   7.092   2.453          1.371
     3      25       0     0     0    6        1.991   5.866  -1.214          1.389

 NON-EQUIV. ATOM      13 C (N.     25 IN THE UNIT CELL), CLUSTER OF      3 ATOMS
 NEW  OLD   CELL  AT. NU.         COORD.(AU)             DISTANCE (ANG)
     1      27       0     0     0    6        4.206   6.282   0.122          1.387
     2      23       0     0     0    6       -0.302   6.309  -0.015          1.389
     3      31       0     0     0    6        2.045   4.981  -3.887          1.490

 NON-EQUIV. ATOM      14 C (N.     27 IN THE UNIT CELL), CLUSTER OF      3 ATOMS
 NEW  OLD   CELL  AT. NU.         COORD.(AU)             DISTANCE (ANG)
     1      53       0     0     0    1        6.012   5.944  -0.776          1.082
     2      29       0     0     0    6        4.146   7.043   2.608          1.376
     3      25       0     0     0    6        1.991   5.866  -1.214          1.387

 NON-EQUIV. ATOM      15 C (N.     29 IN THE UNIT CELL), CLUSTER OF      3 ATOMS
 NEW  OLD   CELL  AT. NU.         COORD.(AU)             DISTANCE (ANG)
     1      55       0     0     0    1        5.915   7.296   3.598          1.081
     2      27       0     0     0    6        4.206   6.282   0.122          1.376
     3      19       0     0     0    6        1.846   7.442   3.812          1.390

 NON-EQUIV. ATOM      16 C (N.     31 IN THE UNIT CELL), CLUSTER OF      4 ATOMS
 NEW  OLD   CELL  AT. NU.         COORD.(AU)             DISTANCE (ANG)
     1      61       0     0     0    1        3.932   4.397  -4.456          1.087
     2      59       0     0     0    1        0.761   3.397  -4.163          1.089
     3      57       0     0     0    1        1.433   6.482  -5.158          1.090
     4      25       0     0     0    6        1.991   5.866  -1.214          1.490

 NON-EQUIV. ATOM      17 C (N.     33 IN THE UNIT CELL), CLUSTER OF      3 ATOMS
 NEW  OLD   CELL  AT. NU.         COORD.(AU)             DISTANCE (ANG)
     1      43       0     0     0    6       -3.413  -1.793  -7.436          1.381
     2      35       0     0     0    6       -5.871  -0.920  -3.838          1.394
     3      17      -1     0     0    6       -8.161  -1.891  -7.938          1.511

 NON-EQUIV. ATOM      18 C (N.     35 IN THE UNIT CELL), CLUSTER OF      3 ATOMS
 NEW  OLD   CELL  AT. NU.         COORD.(AU)             DISTANCE (ANG)
     1      37       0     0     0    6       -3.739  -0.812  -2.342          1.379
     2      33       0     0     0    6       -5.788  -1.421  -6.422          1.394
     3      11      -1     0     0    7       -8.219  -0.523  -2.523          1.439

 NON-EQUIV. ATOM      19 C (N.     37 IN THE UNIT CELL), CLUSTER OF      3 ATOMS
 NEW  OLD   CELL  AT. NU.         COORD.(AU)             DISTANCE (ANG)
     1      63       0     0     0    1       -3.957  -0.453  -0.349          1.078
     2      39       0     0     0    6       -1.403  -1.169  -3.426          1.376
     3      35       0     0     0    6       -5.871  -0.920  -3.838          1.379

 NON-EQUIV. ATOM      20 C (N.     39 IN THE UNIT CELL), CLUSTER OF      3 ATOMS
 NEW  OLD   CELL  AT. NU.         COORD.(AU)             DISTANCE (ANG)
     1      65       0     0     0    1        0.287  -1.144  -2.287          1.079
     2      37       0     0     0    6       -3.739  -0.812  -2.342          1.376
     3      41       0     0     0    6       -1.250  -1.644  -5.979          1.376

 NON-EQUIV. ATOM      21 C (N.     41 IN THE UNIT CELL), CLUSTER OF      3 ATOMS
 NEW  OLD   CELL  AT. NU.         COORD.(AU)             DISTANCE (ANG)
     1      67       0     0     0    1        0.567  -1.953  -6.857          1.081
     2      39       0     0     0    6       -1.403  -1.169  -3.426          1.376
     3      43       0     0     0    6       -3.413  -1.793  -7.436          1.382

 NON-EQUIV. ATOM      22 C (N.     43 IN THE UNIT CELL), CLUSTER OF      3 ATOMS
 NEW  OLD   CELL  AT. NU.         COORD.(AU)             DISTANCE (ANG)
     1      69       0     0     0    1       -3.214  -2.228  -9.416          1.078
     2      33       0     0     0    6       -5.788  -1.421  -6.422          1.381
     3      41       0     0     0    6       -1.250  -1.644  -5.979          1.382

 NON-EQUIV. ATOM      23 H (N.     45 IN THE UNIT CELL), CLUSTER OF      2 ATOMS
 NEW  OLD   CELL  AT. NU.         COORD.(AU)             DISTANCE (ANG)
     1      15       0     0     0    6        4.092   8.677   7.933          1.086
     2      69       1     1     1    1        8.618   8.427   9.290          1.993

 NON-EQUIV. ATOM      24 H (N.     47 IN THE UNIT CELL), CLUSTER OF      1 ATOMS
 NEW  OLD   CELL  AT. NU.         COORD.(AU)             DISTANCE (ANG)
     1      17       0     0     0    6        6.462  -4.719  -7.938          1.085

 NON-EQUIV. ATOM      25 H (N.     49 IN THE UNIT CELL), CLUSTER OF      1 ATOMS
 NEW  OLD   CELL  AT. NU.         COORD.(AU)             DISTANCE (ANG)
     1      21       0     0     0    6       -0.380   7.092   2.453          1.081

 NON-EQUIV. ATOM      26 H (N.     51 IN THE UNIT CELL), CLUSTER OF      1 ATOMS
 NEW  OLD   CELL  AT. NU.         COORD.(AU)             DISTANCE (ANG)
     1      23       0     0     0    6       -0.302   6.309  -0.015          1.082

 NON-EQUIV. ATOM      27 H (N.     53 IN THE UNIT CELL), CLUSTER OF      1 ATOMS
 NEW  OLD   CELL  AT. NU.         COORD.(AU)             DISTANCE (ANG)
     1      27       0     0     0    6        4.206   6.282   0.122          1.082

 NON-EQUIV. ATOM      28 H (N.     55 IN THE UNIT CELL), CLUSTER OF      1 ATOMS
 NEW  OLD   CELL  AT. NU.         COORD.(AU)             DISTANCE (ANG)
     1      29       0     0     0    6        4.146   7.043   2.608          1.081

 NON-EQUIV. ATOM      29 H (N.     57 IN THE UNIT CELL), CLUSTER OF      3 ATOMS
 NEW  OLD   CELL  AT. NU.         COORD.(AU)             DISTANCE (ANG)
     1      31       0     0     0    6        2.045   4.981  -3.887          1.090
     2      59       0     0     0    1        0.761   3.397  -4.163          1.752
     3      61       0     0     0    1        3.932   4.397  -4.456          1.762

 NON-EQUIV. ATOM      30 H (N.     59 IN THE UNIT CELL), CLUSTER OF      3 ATOMS
 NEW  OLD   CELL  AT. NU.         COORD.(AU)             DISTANCE (ANG)
     1      31       0     0     0    6        2.045   4.981  -3.887          1.089
     2      57       0     0     0    1        1.433   6.482  -5.158          1.752
     3      61       0     0     0    1        3.932   4.397  -4.456          1.766

 NON-EQUIV. ATOM      31 H (N.     61 IN THE UNIT CELL), CLUSTER OF      3 ATOMS
 NEW  OLD   CELL  AT. NU.         COORD.(AU)             DISTANCE (ANG)
     1      31       0     0     0    6        2.045   4.981  -3.887          1.087
     2      57       0     0     0    1        1.433   6.482  -5.158          1.762
     3      59       0     0     0    1        0.761   3.397  -4.163          1.766

 NON-EQUIV. ATOM      32 H (N.     63 IN THE UNIT CELL), CLUSTER OF      1 ATOMS
 NEW  OLD   CELL  AT. NU.         COORD.(AU)             DISTANCE (ANG)
     1      37       0     0     0    6       -3.739  -0.812  -2.342          1.078

 NON-EQUIV. ATOM      33 H (N.     65 IN THE UNIT CELL), CLUSTER OF      1 ATOMS
 NEW  OLD   CELL  AT. NU.         COORD.(AU)             DISTANCE (ANG)
     1      39       0     0     0    6       -1.403  -1.169  -3.426          1.079

 NON-EQUIV. ATOM      34 H (N.     67 IN THE UNIT CELL), CLUSTER OF      1 ATOMS
 NEW  OLD   CELL  AT. NU.         COORD.(AU)             DISTANCE (ANG)
     1      41       0     0     0    6       -1.250  -1.644  -5.979          1.081

 NON-EQUIV. ATOM      35 H (N.     69 IN THE UNIT CELL), CLUSTER OF      2 ATOMS
 NEW  OLD   CELL  AT. NU.         COORD.(AU)             DISTANCE (ANG)
     1      43       0     0     0    6       -3.413  -1.793  -7.436          1.078
     2      45      -1    -1    -1    1       -6.287  -3.333 -11.292          1.993

 NON-EQUIV. ATOM      36 H (N.     71 IN THE UNIT CELL), CLUSTER OF      3 ATOMS
 NEW  OLD   CELL  AT. NU.         COORD.(AU)             DISTANCE (ANG)
     1       5       0     0     0    8        5.517  -7.096  -7.113          0.972
     2       4       0     0     0    8        0.345  -8.445  -7.556          1.896
     3      17       0     0     0    6        6.462  -4.719  -7.938          1.987

 *******************************************************************************
         TOPOLOGICAL ANALYSIS OF RHO : UNIQUE ATOM PAIRS CONSIDERED
 *******************************************************************************

 NON EQUIV. ATOM       1  BR

  NEW   SYM  OLD   CELL           COORD. (AU)         DISTANCE (ANG)
      1    C       15        0    -1     0      4.092 -10.262   7.933         1.955

 NON EQUIV. ATOM       2  O 

  NEW   SYM  OLD   CELL           COORD. (AU)         DISTANCE (ANG)
      1    C       13        0     0     0      1.678   8.183   6.467         1.223
      2    H       72        0     0     0     -3.716   7.236   7.454         1.896

 NON EQUIV. ATOM       3  O 

  NEW   SYM  OLD   CELL           COORD. (AU)         DISTANCE (ANG)
      1    H       71        0     0     0      3.716  -7.236  -7.454         0.972
      2    C       17        0     0     0      6.462  -4.719  -7.938         1.422

 NON EQUIV. ATOM       4  O 

  NEW   SYM  OLD   CELL           COORD. (AU)         DISTANCE (ANG)
      1    N       11        0     0     0      6.404  -3.352  -2.523         1.249

 NON EQUIV. ATOM       5  O 

  NEW   SYM  OLD   CELL           COORD. (AU)         DISTANCE (ANG)
      1    N       11        0     0     0      6.404  -3.352  -2.523         1.248

 NON EQUIV. ATOM       6  N 

  NEW   SYM  OLD   CELL           COORD. (AU)         DISTANCE (ANG)
      3    C       35        1     0     0      8.752  -3.748  -3.838         1.439

 NON EQUIV. ATOM       7  C 

  NEW   SYM  OLD   CELL           COORD. (AU)         DISTANCE (ANG)
      2    C       19        0     0     0      1.846   7.442   3.812         1.461
      3    C       15        0     0     0      4.092   8.677   7.933         1.517

 NON EQUIV. ATOM       8  C 

  NEW   SYM  OLD   CELL           COORD. (AU)         DISTANCE (ANG)
      1    H       45        0     0     0      5.545   7.322   7.414         1.086
      3    C       17        0     1     1      3.671   8.764  10.768         1.518

 NON EQUIV. ATOM       9  C 

  NEW   SYM  OLD   CELL           COORD. (AU)         DISTANCE (ANG)
      1    H       47        0     0     0      5.091  -3.244  -7.557         1.085
      3    C       33        1     0     0      8.835  -4.250  -6.422         1.511
      5    H       71        0     0     0      3.716  -7.236  -7.454         1.987

 NON EQUIV. ATOM      10  C 

  NEW   SYM  OLD   CELL           COORD. (AU)         DISTANCE (ANG)
      1    C       29        0     0     0      4.146   7.043   2.608         1.390
      2    C       21        0     0     0     -0.380   7.092   2.453         1.393

 NON EQUIV. ATOM      11  C 

  NEW   SYM  OLD   CELL           COORD. (AU)         DISTANCE (ANG)
      1    H       49        0     0     0     -2.177   7.460   3.351         1.081
      2    C       23        0     0     0     -0.302   6.309  -0.015         1.371

 NON EQUIV. ATOM      12  C 

  NEW   SYM  OLD   CELL           COORD. (AU)         DISTANCE (ANG)
      1    H       51        0     0     0     -2.051   6.052  -1.042         1.082
      3    C       25        0     0     0      1.991   5.866  -1.214         1.389

 NON EQUIV. ATOM      13  C 

  NEW   SYM  OLD   CELL           COORD. (AU)         DISTANCE (ANG)
      1    C       27        0     0     0      4.206   6.282   0.122         1.387
      3    C       31        0     0     0      2.045   4.981  -3.887         1.490

 NON EQUIV. ATOM      14  C 

  NEW   SYM  OLD   CELL           COORD. (AU)         DISTANCE (ANG)
      1    H       53        0     0     0      6.012   5.944  -0.776         1.082
      2    C       29        0     0     0      4.146   7.043   2.608         1.376

 NON EQUIV. ATOM      15  C 

  NEW   SYM  OLD   CELL           COORD. (AU)         DISTANCE (ANG)
      1    H       55        0     0     0      5.915   7.296   3.598         1.081

 NON EQUIV. ATOM      16  C 

  NEW   SYM  OLD   CELL           COORD. (AU)         DISTANCE (ANG)
      1    H       61        0     0     0      3.932   4.397  -4.456         1.087
      2    H       59        0     0     0      0.761   3.397  -4.163         1.089
      3    H       57        0     0     0      1.433   6.482  -5.158         1.090

 NON EQUIV. ATOM      17  C 

  NEW   SYM  OLD   CELL           COORD. (AU)         DISTANCE (ANG)
      1    C       43        0     0     0     -3.413  -1.793  -7.436         1.381
      2    C       35        0     0     0     -5.871  -0.920  -3.838         1.394

 NON EQUIV. ATOM      18  C 

  NEW   SYM  OLD   CELL           COORD. (AU)         DISTANCE (ANG)
      1    C       37        0     0     0     -3.739  -0.812  -2.342         1.379

 NON EQUIV. ATOM      19  C 

  NEW   SYM  OLD   CELL           COORD. (AU)         DISTANCE (ANG)
      1    H       63        0     0     0     -3.957  -0.453  -0.349         1.078
      2    C       39        0     0     0     -1.403  -1.169  -3.426         1.376

 NON EQUIV. ATOM      20  C 

  NEW   SYM  OLD   CELL           COORD. (AU)         DISTANCE (ANG)
      1    H       65        0     0     0      0.287  -1.144  -2.287         1.079
      3    C       41        0     0     0     -1.250  -1.644  -5.979         1.376

 NON EQUIV. ATOM      21  C 

  NEW   SYM  OLD   CELL           COORD. (AU)         DISTANCE (ANG)
      1    H       67        0     0     0      0.567  -1.953  -6.857         1.081
      3    C       43        0     0     0     -3.413  -1.793  -7.436         1.382

 NON EQUIV. ATOM      22  C 

  NEW   SYM  OLD   CELL           COORD. (AU)         DISTANCE (ANG)
      1    H       69        0     0     0     -3.214  -2.228  -9.416         1.078

 NON EQUIV. ATOM      23  H 

  NEW   SYM  OLD   CELL           COORD. (AU)         DISTANCE (ANG)
      2    H       69        1     1     1      8.618   8.427   9.290         1.993

 NON EQUIV. ATOM      24  H 

 NON EQUIV. ATOM      25  H 

 NON EQUIV. ATOM      26  H 

 NON EQUIV. ATOM      27  H 

 NON EQUIV. ATOM      28  H 

 NON EQUIV. ATOM      29  H 

  NEW   SYM  OLD   CELL           COORD. (AU)         DISTANCE (ANG)
      2    H       59        0     0     0      0.761   3.397  -4.163         1.752
      3    H       61        0     0     0      3.932   4.397  -4.456         1.762

 NON EQUIV. ATOM      30  H 

  NEW   SYM  OLD   CELL           COORD. (AU)         DISTANCE (ANG)
      3    H       61        0     0     0      3.932   4.397  -4.456         1.766

 NON EQUIV. ATOM      31  H 

 NON EQUIV. ATOM      32  H 

 NON EQUIV. ATOM      33  H 

 NON EQUIV. ATOM      34  H 

 NON EQUIV. ATOM      35  H 

 NON EQUIV. ATOM      36  H 


 ************* T O P O L O G I C A L  A N A L I S Y S  O F  R H O *************


 COMPUTATIONAL CONDITIONS :
                           IAUTO                                     :    -1
                           ALGORITHM FOR CP SEARCH                   :    EF
                           DETERMINATION OF BOND PATH ATTRACTORS     :     T
                           MAX.NUM. OF N.R. OR EIG. FOL. STEPS       :    20
                           NEIGHBORS OF EACH NON-EQUIVALENT ATOM     :    20
                           THRESHOLD ON INTERNUC. DISTANCES (ANG)    :   5.0
                           PRINT N.RAPH OR E.FOL. OR PAR. EQ. SEARCH :     F
                           TOTAL NUMBER OF PAIRS CONSIDERED          :    43


 ********************
 SEARCH OF (3,-3) CPS
 ********************

 CP N.      1
 *********

 CP TYPE                        :  (3,-3)
 COORD(AU)  (X  Y  Z)           :  5.2313E+00 -6.9400E+00  6.7859E+00
 COORD FRACT. CONV. CELL        :  4.2698E-01 -1.9818E-01  3.6276E-01
 PROPERTIES (RHO,GRHO,LAP)      :  2.8798E+04  1.4400E-06 -8.6174E+09
 KINETIC ENERGY DENSITIES (G,K) :  9.3001E+05  2.1553E+09
 VIRIAL DENSITY                 : -2.1562E+09
 ELF(PAA)                       :  9.9986E-01
 PEZLSD  CORR. FUNCT.           : -4.8867E+03
 VWNLSD  CORR. FUNCT.           : -4.8631E+03
 VBHLSD  CORR. FUNCT.           : -5.0576E+03
 PWALSD  CORR. FUNCT.           : -4.8567E+03
 CSAGGA  CORR. FUNCT.           :  5.8877E+03
 VLEGGA  CORR. FUNCT.           : -5.9538E+03
 P86GGA  CORR. FUNCT.           : -4.8867E+03
 P91GGA  CORR. FUNCT.           : -4.8867E+03
 PWAGGA  CORR. FUNCT.           : -4.8567E+03
 BECGGA  CORR. FUNCT.           : -1.7642E+03
 PBEGGA  CORR. FUNCT.           : -4.8567E+03
 LYPGGA  CORR. FUNCT.           :  1.5103E+04
 LDAXLSD EXCH. FUNCT.           : -6.5194E+05
 VBHXLSD EXCH. FUNCT.           : -6.5192E+05
 PBEXGGA EXCH. FUNCT.           : -6.5194E+05
 BECXGGA EXCH. FUNCT.           : -6.5194E+05
 PWAXGGA EXCH. FUNCT.           : -6.5194E+05

 SPECTRAL DECOMP. OF THE HESSIAN OF RHO

 EIGENVALUES (L1 L2 L3)         : -2.8725E+09 -2.8725E+09 -2.8725E+09
 EIGENVECTORS                   :  3.1259E-01  9.4019E-01  1.3542E-01
                                   9.0290E-01 -3.3837E-01  2.6510E-01
                                  -2.9506E-01 -3.9402E-02  9.5467E-01


 CLUSTER OF ATOMS AROUND THE CP 
 NEW  OLD   CELL  AT. NU.         COORD.(AU)             DISTANCE (ANG)
     1       1       0     0     0   35        5.231  -6.940   6.786          0.000
     2      15       0    -1     0    6        4.092 -10.262   7.933          1.955

 CP N.      2
 *********

 CP TYPE                        :  (3,-3)
 COORD(AU)  (X  Y  Z)           : -3.4462E-01  8.4455E+00  7.5556E+00
 COORD FRACT. CONV. CELL        :  5.3527E-02 -4.2972E-01  4.0391E-01
 PROPERTIES (RHO,GRHO,LAP)      :  3.0175E+02  2.7366E-10 -4.5086E+06
 KINETIC ENERGY DENSITIES (G,K) :  7.4483E+01  1.1272E+06
 VIRIAL DENSITY                 : -1.1273E+06
 ELF(PAA)                       :  1.0000E+00
 PEZLSD  CORR. FUNCT.           : -3.7281E+01
 VWNLSD  CORR. FUNCT.           : -3.7299E+01
 VBHLSD  CORR. FUNCT.           : -4.1466E+01
 PWALSD  CORR. FUNCT.           : -3.7161E+01
 CSAGGA  CORR. FUNCT.           :  6.0278E+01
 VLEGGA  CORR. FUNCT.           : -6.1162E+01
 P86GGA  CORR. FUNCT.           : -3.7281E+01
 P91GGA  CORR. FUNCT.           : -3.7281E+01
 PWAGGA  CORR. FUNCT.           : -3.7161E+01
 BECGGA  CORR. FUNCT.           : -1.7294E+01
 PBEGGA  CORR. FUNCT.           : -3.7161E+01
 LYPGGA  CORR. FUNCT.           :  1.5443E+02
 LDAXLSD EXCH. FUNCT.           : -1.4948E+03
 VBHXLSD EXCH. FUNCT.           : -1.4947E+03
 PBEXGGA EXCH. FUNCT.           : -1.4948E+03
 BECXGGA EXCH. FUNCT.           : -1.4948E+03
 PWAXGGA EXCH. FUNCT.           : -1.4948E+03

 SPECTRAL DECOMP. OF THE HESSIAN OF RHO

 EIGENVALUES (L1 L2 L3)         : -1.5029E+06 -1.5029E+06 -1.5029E+06
 EIGENVECTORS                   :  6.4732E-03  8.8796E-01  4.5987E-01
                                  -9.6288E-01 -1.1857E-01  2.4251E-01
                                   2.6987E-01 -4.4437E-01  8.5423E-01


 CLUSTER OF ATOMS AROUND THE CP 
 NEW  OLD   CELL  AT. NU.         COORD.(AU)             DISTANCE (ANG)
     1       3       0     0     0    8       -0.345   8.445   7.556          0.000
     2      13       0     0     0    6        1.678   8.183   6.467          1.223
     3      72       0     0     0    1       -3.716   7.236   7.454          1.896

 CP N.      3
 *********

 CP TYPE                        :  (3,-3)
 COORD(AU)  (X  Y  Z)           :  5.5168E+00 -7.0964E+00 -7.1133E+00
 COORD FRACT. CONV. CELL        :  3.0469E-01 -4.3874E-01 -3.8027E-01
[...]
       ( C    43       0      0      0   0.692  ANG)    -0.210  -0.976   0.058
                                                        -0.806   0.206   0.556


   72) -3.289  -2.072  -8.712  (3,-1)    0.291  -1.053  -0.781  -0.773   0.501  0.011

       ( H    69       0      0      0   0.367  ANG)    -0.993  -0.065   0.100
       ( C    43       0      0      0   0.694  ANG)     0.042  -0.976  -0.213
                                                        -0.112   0.208  -0.972


   73)  6.737   8.325   8.844  (3,-1)    0.015   0.060  -0.012  -0.004   0.076  1.682

       ( H    69       1      1      1   1.116  ANG)    -0.176   0.487   0.856
       ( C    15       0      0      0   1.774  ANG)    -0.844  -0.522   0.123
                                                         0.506  -0.701   0.503


   74)  4.677   7.628   5.362  (3,+1)    0.013   0.061  -0.009   0.006   0.064
                                                        -0.136  -0.988   0.077
                                                        -0.972   0.118  -0.202
                                                         0.191  -0.102  -0.976


   75)  1.921   6.675   1.298  (3,+1)    0.024   0.155  -0.017   0.082   0.090
                                                        -0.021   0.046  -0.999
                                                        -0.955   0.296   0.033
                                                         0.297   0.954   0.038


   76)  1.130  12.100   5.766  (3,+1)    0.002   0.009  -0.001   0.000   0.010
                                                        -0.211  -0.209   0.955
                                                         0.318  -0.938  -0.135
                                                         0.924   0.275   0.264


   77) -2.868   7.360   5.389  (3,+1)    0.006   0.024  -0.006   0.003   0.026
                                                        -0.264   0.795   0.547
                                                         0.960   0.273   0.067
                                                        -0.097   0.542  -0.835


   78)  3.816  -5.466  -4.170  (3,+1)    0.002   0.010  -0.001   0.003   0.008
                                                         0.660  -0.544   0.517
                                                        -0.397   0.332   0.856
                                                         0.638   0.770  -0.004


   79)  8.362  -7.576  -4.842  (3,+1)    0.002   0.011  -0.001   0.002   0.009
                                                        -0.657  -0.714   0.243
                                                         0.197  -0.474  -0.858
                                                         0.728  -0.516   0.452


   80)  2.914  -2.499  -6.514  (3,+1)    0.003   0.011  -0.002   0.002   0.011
                                                        -0.235   0.019   0.972
                                                        -0.943   0.240  -0.232
                                                         0.237   0.971   0.039


   81)  2.391  -3.138  -8.118  (3,+1)    0.003   0.009  -0.002   0.002   0.008
                                                        -0.160  -0.660   0.734
                                                        -0.838  -0.302  -0.454
                                                         0.521  -0.688  -0.505


   82)  0.663  -4.743  -7.811  (3,+1)    0.001   0.006  -0.001   0.002   0.005
                                                        -0.802  -0.589   0.098
                                                         0.082  -0.271  -0.959
                                                        -0.592   0.761  -0.265


   83)  2.319  -6.753  -8.823  (3,+1)    0.008   0.034  -0.006   0.010   0.031
                                                        -0.269   0.924   0.271
                                                         0.780   0.044   0.624
                                                         0.565   0.380  -0.733


   84)  6.224  -3.344  -5.479  (3,+1)    0.014   0.074  -0.010   0.021   0.063
                                                        -0.319  -0.857   0.405
                                                        -0.915   0.166  -0.368
                                                         0.248  -0.488  -0.837


   85)  9.340  -5.004  -9.567  (3,+1)    0.015   0.066  -0.010   0.005   0.071
                                                        -0.096   0.490   0.867
                                                        -0.943  -0.324   0.078
                                                         0.319  -0.809   0.493


   86)  4.792  -1.400  -0.453  (3,+1)    0.006   0.027  -0.004   0.005   0.027
                                                         0.873  -0.295   0.389
                                                         0.480   0.379  -0.791
                                                        -0.086  -0.877  -0.472


   87)  6.117  -1.357   0.974  (3,+1)    0.005   0.023  -0.001   0.006   0.019
                                                         0.012  -0.999   0.038
                                                        -0.470   0.028   0.882
                                                         0.883   0.028   0.469


   88)  1.736  -3.663  -2.499  (3,+1)    0.002   0.011  -0.001   0.003   0.009
                                                         0.262   0.779   0.570
                                                         0.147  -0.616   0.774
                                                         0.954  -0.119  -0.276


   89)  3.198  -4.864  -1.939  (3,+1)    0.003   0.014  -0.000   0.003   0.011
                                                        -0.547  -0.246   0.800
                                                         0.765   0.241   0.597
                                                         0.340  -0.939  -0.057


   90)  7.753   0.098  -5.161  (3,+1)    0.000   0.003  -0.000   0.000   0.003
                                                         0.273   0.910   0.313
                                                         0.262  -0.383   0.886
                                                         0.926  -0.160  -0.343


   91)  1.643   3.561   1.224  (3,+1)    0.004   0.023  -0.003   0.003   0.023
                                                         0.224  -0.971   0.087
                                                         0.634   0.078  -0.770
                                                         0.740   0.228   0.632


   92)  7.563   6.763   8.103  (3,+1)    0.007   0.023  -0.006   0.011   0.018
                                                        -0.382  -0.735  -0.561
                                                        -0.496  -0.349   0.795
                                                         0.780  -0.582   0.231


   93)  7.166  10.301   3.117  (3,+1)    0.002   0.006  -0.001   0.001   0.006
                                                        -0.721  -0.460   0.518
                                                         0.432  -0.883  -0.184
                                                        -0.542  -0.091  -0.835


   94)  6.961   8.347   0.520  (3,+1)    0.003   0.015  -0.002   0.001   0.017
                                                        -0.517   0.369   0.772
                                                         0.679  -0.372   0.633
                                                        -0.521  -0.852   0.059


   95)  5.137   9.411  -2.996  (3,+1)    0.000   0.001  -0.000   0.001   0.001
                                                        -0.282  -0.563  -0.777
                                                        -0.652  -0.482   0.586
                                                        -0.704   0.671  -0.231


   96) -2.727   7.837  -3.097  (3,+1)    0.002   0.008  -0.001   0.003   0.006
                                                         0.825  -0.482   0.297
                                                        -0.205  -0.743  -0.637
                                                        -0.527  -0.465   0.711


   97) -2.182   2.872  -1.851  (3,+1)    0.001   0.004  -0.000   0.001   0.003
                                                         0.544   0.809   0.221
                                                        -0.327  -0.037   0.944
                                                         0.772  -0.586   0.245


   98) -1.696   6.134  -4.065  (3,+1)    0.001   0.007  -0.001   0.002   0.005
                                                         0.225  -0.498   0.837
                                                         0.973   0.075  -0.217
                                                         0.045   0.864   0.502


   99)  2.126   1.494  -1.798  (3,+1)    0.001   0.005  -0.000   0.002   0.004
                                                        -0.713   0.578   0.397
                                                         0.281   0.754  -0.594
                                                         0.642   0.312   0.700


  100)  1.294   8.748  -3.818  (3,+1)    0.003   0.014  -0.001   0.001   0.015
                                                        -0.977   0.182   0.112
                                                        -0.161  -0.282  -0.946
                                                         0.141   0.942  -0.305


  101)  3.525   7.711  -7.374  (3,+1)    0.001   0.003  -0.000   0.000   0.003
                                                        -0.552   0.373   0.746
                                                        -0.407  -0.901   0.150
                                                        -0.728   0.221  -0.649


  102)  3.058   1.029  -3.622  (3,+1)    0.001   0.005  -0.000   0.000   0.005
                                                         0.145  -0.902   0.406
                                                         0.198  -0.376  -0.905
                                                         0.969   0.212   0.125


  103) -3.602  -1.302  -4.899  (3,+1)    0.024   0.156  -0.017   0.080   0.093
                                                         0.064   0.861  -0.505
                                                         0.980   0.040   0.193
                                                        -0.187   0.507   0.841


  104) -3.241  -5.223  -7.180  (3,+1)    0.003   0.014  -0.001   0.001   0.014
                                                        -0.494   0.869  -0.033
                                                         0.021   0.050   0.999
                                                         0.869   0.493  -0.043


  105) -0.407  -3.746  -9.367  (3,+1)    0.001   0.007  -0.000   0.002   0.005
                                                        -0.081  -0.776   0.625
                                                        -0.762  -0.355  -0.541
                                                         0.642  -0.520  -0.563


  106) -0.955   0.091   0.060  (3,+1)    0.002   0.010  -0.002   0.002   0.010
                                                         0.001  -0.959   0.284
                                                        -0.920   0.110   0.376
                                                         0.392   0.261   0.882


  107) -2.356   0.584   1.215  (3,+1)    0.003   0.011  -0.003   0.001   0.012
                                                        -0.069   0.686   0.724
                                                        -0.843  -0.428   0.325
                                                         0.533  -0.588   0.608


  108)  1.894  -1.975  -4.648  (3,+1)    0.004   0.022  -0.003   0.003   0.022
                                                         0.175  -0.442   0.880
                                                         0.975   0.202  -0.093
                                                        -0.137   0.874   0.466


  109) -3.955  -5.132  -8.209  (3,+1)    0.003   0.014  -0.001   0.002   0.013
                                                        -0.874   0.442   0.203
                                                         0.185  -0.084   0.979
                                                        -0.450  -0.893   0.008


  110)  6.307   1.808  -3.315  (3,+3)    0.000   0.002   0.000   0.001   0.001
                                                        -0.623   0.782  -0.025
                                                         0.496   0.370  -0.786
                                                         0.605   0.501   0.618


  111)  4.599   4.997   5.692  (3,+3)    0.002   0.011   0.000   0.002   0.009
                                                        -0.967  -0.254  -0.034
                                                         0.097  -0.485   0.869
                                                         0.237  -0.837  -0.494


  112)  9.131   5.754   1.847  (3,+3)    0.000   0.001   0.000   0.000   0.001
                                                        -0.281  -0.508   0.814
                                                         0.115  -0.860  -0.496
                                                         0.953  -0.046   0.301


  113)  1.893   4.191   2.042  (3,+3)    0.004   0.025   0.004   0.006   0.016
                                                         0.307   0.951   0.023
                                                         0.382  -0.146   0.913
                                                         0.872  -0.272  -0.408


  114) -1.320   2.381  -0.942  (3,+3)    0.000   0.003   0.000   0.001   0.002
                                                        -0.963   0.009   0.268
                                                         0.257   0.321   0.911
                                                         0.078  -0.947   0.312


  115)  1.393  11.479   3.886  (3,+3)    0.001   0.007   0.001   0.002   0.003
                                                         0.540  -0.656   0.528
                                                         0.761   0.113  -0.639
                                                         0.359   0.746   0.560


  116)  4.893   8.549  -4.008  (3,+3)    0.000   0.001   0.000   0.000   0.001
                                                        -0.201   0.814   0.545
                                                         0.535  -0.375   0.757
                                                         0.821   0.444  -0.360


  117) -1.991   4.728   5.749  (3,+3)    0.001   0.004   0.001   0.001   0.002
                                                        -0.161  -0.938   0.308
                                                         0.169  -0.333  -0.928
                                                         0.972  -0.097   0.212


  118)  7.376   0.996  -3.662  (3,+1)    0.000   0.002  -0.000   0.001   0.002
                                                         0.780   0.420   0.463
                                                        -0.600   0.292   0.745
                                                        -0.178   0.859  -0.480


  119) -0.433  -4.513  -8.635  (3,+3)    0.001   0.006   0.001   0.001   0.004
                                                         0.084  -0.988   0.133
                                                        -0.604  -0.157  -0.782
                                                         0.793  -0.015  -0.610


  120)  8.134   0.522  -3.806  (3,+3)    0.000   0.002   0.000   0.000   0.002
                                                         0.958   0.120   0.260
                                                        -0.286   0.436   0.853
                                                         0.011   0.892  -0.452


  121) -3.228   2.939  -4.439  (3,+1)    0.000   0.002  -0.000   0.000   0.002
                                                        -0.079  -0.979   0.187
                                                         0.431  -0.203  -0.879
                                                         0.899   0.011   0.438


  122) -3.341   3.307  -3.608  (3,+3)    0.000   0.002   0.000   0.000   0.001
                                                        -0.379  -0.921   0.086
                                                         0.315  -0.216  -0.924
                                                         0.870  -0.323   0.372


 ************************************************************************************
 TTTTTTTTTTTTTTTTTTTTTTTTTTTTTT TRHO        TELAPSE     1116.76 TCPU     1115.81
 TTTTTTTTTTTTTTTTTTTTTTTTTTTTTT END         TELAPSE     1116.76 TCPU     1115.81
 EEEEEEEEEE TERMINATION  DATE 31 08 2018 TIME 11:36:29.8
NODE    0 CPU TIME =      1115.814
NODE    1 CPU TIME =      1115.794
NODE    2 CPU TIME =      1115.810
NODE    3 CPU TIME =      1115.810
    TOTAL CPU TIME =      4463.227
Fri Aug 31 11:36:29 CEST 2018
Contents of temporary directory in master node node79:
total 81784
-rw-r--r-- 1 casassa users       87 Aug 31 11:17 INPUT
-rwxr-xr-x 1 casassa users 15030403 Aug 31 11:17 Pproperties
-rw------- 1 casassa users        0 Aug 31 11:17 fort.10.pe0
-rw------- 1 casassa users        0 Aug 31 11:17 fort.10.pe1
-rw------- 1 casassa users        0 Aug 31 11:17 fort.10.pe2
-rw------- 1 casassa users        0 Aug 31 11:17 fort.10.pe3
-rw------- 1 casassa users     3086 Aug 31 11:36 fort.100
-rw------- 1 casassa users     3010 Aug 31 11:36 fort.101
-rw------- 1 casassa users  1979128 Aug 31 11:17 fort.11.pe0
-rw------- 1 casassa users  1979128 Aug 31 11:17 fort.11.pe1
-rw------- 1 casassa users  1979128 Aug 31 11:17 fort.11.pe2
-rw------- 1 casassa users  1979128 Aug 31 11:17 fort.11.pe3
-rw------- 1 casassa users 11179864 Aug 31 11:17 fort.13.pe0
-rw------- 1 casassa users 11179864 Aug 31 11:17 fort.13.pe1
-rw------- 1 casassa users 11179864 Aug 31 11:17 fort.13.pe2
-rw------- 1 casassa users 11179864 Aug 31 11:17 fort.13.pe3
-rw------- 1 casassa users        0 Aug 31 11:17 fort.15.pe0
-rw------- 1 casassa users        0 Aug 31 11:17 fort.15.pe1
-rw------- 1 casassa users        0 Aug 31 11:17 fort.15.pe2
-rw------- 1 casassa users        0 Aug 31 11:17 fort.15.pe3
-rw------- 1 casassa users        0 Aug 31 11:17 fort.26.pe0
-rw------- 1 casassa users        0 Aug 31 11:17 fort.26.pe1
-rw------- 1 casassa users        0 Aug 31 11:17 fort.26.pe2
-rw------- 1 casassa users        0 Aug 31 11:17 fort.26.pe3
-rw------- 1 casassa users  1979128 Aug 31 11:17 fort.3.pe0
-rw------- 1 casassa users  1979128 Aug 31 11:17 fort.3.pe1
-rw------- 1 casassa users  1979128 Aug 31 11:17 fort.3.pe2
-rw------- 1 casassa users  1979128 Aug 31 11:17 fort.3.pe3
-rw------- 1 casassa users        0 Aug 31 11:17 fort.61.pe0
-rw------- 1 casassa users        0 Aug 31 11:17 fort.61.pe1
-rw------- 1 casassa users        0 Aug 31 11:17 fort.61.pe2
-rw------- 1 casassa users        0 Aug 31 11:17 fort.61.pe3
-rw------- 1 casassa users        0 Aug 31 11:17 fort.62.pe0
-rw------- 1 casassa users        0 Aug 31 11:17 fort.62.pe1
-rw------- 1 casassa users        0 Aug 31 11:17 fort.62.pe2
-rw------- 1 casassa users        0 Aug 31 11:17 fort.62.pe3
-rw------- 1 casassa users        0 Aug 31 11:17 fort.8.pe0
-rw------- 1 casassa users        0 Aug 31 11:17 fort.8.pe1
-rw------- 1 casassa users        0 Aug 31 11:17 fort.8.pe2
-rw------- 1 casassa users        0 Aug 31 11:17 fort.8.pe3
-rw-r--r-- 1 casassa users  8112764 Aug 31 11:17 fort.9
file fort.100 saved as /home/casassa/Support/Topond/Fayzullin/v611.f100
removing temporary directories /data/casassa/803815 from each node
