Siesta Version  : v4.1-b4
Architecture    : unknown
Compiler version: GNU Fortran (SUSE Linux) 5.4.1 20160914 [gcc-5-branch revision 240129]
Compiler flags  : gfortran -O3 -fexpensive-optimizations -ftree-vectorize -fprefetch-loop-arrayys -march=native -fPIC -fopenmp -fopenmp
PP flags        : -DFC_HAVE_ABORT -DSIESTA__DIAG_2STAGE -DSIESTA__MRRR
Libraries       : libsiestaLAPACK.a libsiestaBLAS.a  -fopenmp
SERIAL version

* Running in serial mode
* Running 4 OpenMP threads.
* Running 4 processes.
* OpenMP version 201307
* OpenMP NOT bound (please bind threads!)
* OpenMP runtime schedule DYNAMIC, chunks 1
** OpenMP runtime schedule DYNAMIC, chunks 16
>> Start of run:  14-AUG-2019  13:19:46

                           ***********************       
                           *  WELCOME TO SIESTA  *       
                           ***********************       

reinit: Reading from standard input
reinit: Dumped input in INPUT_TMP.65457
************************** Dump of input data file ****************************
SystemName benzene
SystemLabel benzene
NumberOfSpecies 2
NumberOfAtoms   12
%block ChemicalSpeciesLabel
1    1 H
2    6 C
%endblock ChemicalSpeciesLabel
%block PS.Lmax
  C 2
%endblock PS.Lmax
AtomicCoordinatesFormat NotScaledCartesianAng
ZM.ForceTolLength 0.04 eV/Ang
ZM.ForceTolAngle 0.0001 eV/deg
ZM.MaxDisplLength 0.1 Ang
ZM.MaxDisplAngle 20.0 deg
%block Zmatrix
molecule
      2 0 0 0 xm1 ym1 zm1 0 0 0
      2 1 0 0 CC 90.0 60.0 0 0 0
      2 2 1 0 CC CCC 90.0 0 0 0
      2 3 2 1 CC CCC 0.0 0 0 0
      2 4 3 2 CC CCC 0.0 0 0 0
      2 5 4 3 CC CCC 0.0 0 0 0
      1 1 2 3 CH CCH 180.0 0 0 0
      1 2 1 7 CH CCH 0.0 0 0 0
      1 3 2 8 CH CCH 0.0 0 0 0
      1 4 3 9 CH CCH 0.0 0 0 0
      1 5 4 10 CH CCH 0.0 0 0 0
      1 6 5 11 CH CCH 0.0 0 0 0
constants
        ym1 3.68
variables
        zm1 6.9032294
        CC 1.417
        CH 1.112
        CCH 120.0
        CCC 120.0
constraints
        xm1 CC -1.0 3.903229
%endblock Zmatrix
ZM.UnitsLength Ang
ZM.UnitsAngle deg
MD.TypeOfRun CG
MD.NumCGsteps 40
MeshCutoff 120 Ry
PAO.EnergyShift 0.01 Ry
DM.NumberPulay 5
DM.MixingWeight 0.3
************************** End of input data file *****************************

reinit: -----------------------------------------------------------------------
reinit: System Name: benzene
reinit: -----------------------------------------------------------------------
reinit: System Label: benzene
reinit: -----------------------------------------------------------------------

initatom: Reading input for the pseudopotentials and atomic orbitals ----------
Species number:   1 Atomic number:    1 Label: H
Species number:   2 Atomic number:    6 Label: C

Ground state valence configuration:   1s01
Reading pseudopotential information in formatted form from H.psf

Valence configuration for pseudopotential generation:
1s( 1.00) rc: 1.25
2p( 0.00) rc: 1.25
3d( 0.00) rc: 1.25
4f( 0.00) rc: 1.25
Ground state valence configuration:   2s02  2p02
Reading pseudopotential information in formatted form from C.psf

Valence configuration for pseudopotential generation:
2s( 2.00) rc: 1.49
2p( 2.00) rc: 1.52
3d( 0.00) rc: 1.58
relmxkb: Read Max KB Ang. Momentum=    2 for species C
For H, standard SIESTA heuristics set lmxkb to 2
 (one more than the basis l, including polarization orbitals).
Use PS.lmax or PS.KBprojectors blocks to override.

<basis_specs>
===============================================================================
H                    Z=   1    Mass=  1.0100        Charge= 0.17977+309
Lmxo=0 Lmxkb= 2    BasisType=split      Semic=F
L=0  Nsemic=0  Cnfigmx=1
          n=1  nzeta=2  polorb=1
            splnorm:   0.15000    
               vcte:    0.0000    
               rinn:    0.0000    
               qcoe:    0.0000    
               qyuk:    0.0000    
               qwid:   0.10000E-01
                rcs:    0.0000      0.0000    
            lambdas:    1.0000      1.0000    
-------------------------------------------------------------------------------
L=0  Nkbl=1  erefs: 0.17977+309
L=1  Nkbl=1  erefs: 0.17977+309
L=2  Nkbl=1  erefs: 0.17977+309
===============================================================================
</basis_specs>

atom: Called for H                     (Z =   1)

read_vps: Pseudopotential generation method:
read_vps: ATM3      Troullier-Martins                       
Total valence charge:    1.00000

xc_check: Exchange-correlation functional:
xc_check: Ceperley-Alder
V l=0 = -2*Zval/r beyond r=  1.2343
V l=1 = -2*Zval/r beyond r=  1.2189
V l=2 = -2*Zval/r beyond r=  1.2189
All V_l potentials equal beyond r=  1.2343
This should be close to max(r_c) in ps generation
All pots = -2*Zval/r beyond r=  1.2343

VLOCAL1: 99.0% of the norm of Vloc inside     28.493 Ry
VLOCAL1: 99.9% of the norm of Vloc inside     64.935 Ry
atom: Maximum radius for 4*pi*r*r*local-pseudopot. charge    1.45251
atom: Maximum radius for r*vlocal+2*Zval:    1.21892
GHOST: No ghost state for L =  0
GHOST: No ghost state for L =  1
GHOST: No ghost state for L =  2

KBgen: Kleinman-Bylander projectors: 
   l= 0   rc=  1.364359   el= -0.467325   Ekb= -2.005361   kbcos= -0.336422
   l= 1   rc=  1.434438   el=  0.001430   Ekb= -0.501708   kbcos= -0.021697
   l= 2   rc=  1.470814   el=  0.002365   Ekb= -0.190555   kbcos= -0.002281

KBgen: Total number of  Kleinman-Bylander projectors:    9
atom: -------------------------------------------------------------------------

atom: SANKEY-TYPE ORBITALS:
atom: Selected multiple-zeta basis: split     

SPLIT: Orbitals with angular momentum L= 0

SPLIT: Basis orbitals for state 1s

SPLIT: PAO cut-off radius determined from an
SPLIT: energy shift=  0.010000 Ry

   izeta = 1
                 lambda =    1.000000
                     rc =    5.336316
                 energy =   -0.457946
                kinetic =    0.886710
    potential(screened) =   -1.344656
       potential(ionic) =   -1.876618

   izeta = 2
                 rmatch =    4.002347
              splitnorm =    0.150000
                 energy =   -0.355904
                kinetic =    1.439488
    potential(screened) =   -1.795392
       potential(ionic) =   -2.364690

POLgen: Perturbative polarization orbital with L=  1

POLgen: Polarization orbital for state 1s

   izeta = 1
                     rc =    5.336316
                 energy =    0.616245
                kinetic =    1.262150
    potential(screened) =   -0.645906
       potential(ionic) =   -1.116519
atom: Total number of Sankey-type orbitals:  5

atm_pop: Valence configuration (for local Pseudopot. screening):
 1s( 1.00)                                                            
Vna: chval, zval:    1.00000   1.00000

Vna:  Cut-off radius for the neutral-atom potential:   5.336316

atom: _________________________________________________________________________

<basis_specs>
===============================================================================
C                    Z=   6    Mass=  12.010        Charge= 0.17977+309
Lmxo=1 Lmxkb= 2    BasisType=split      Semic=F
L=0  Nsemic=0  Cnfigmx=2
          n=1  nzeta=2  polorb=0
            splnorm:   0.15000    
               vcte:    0.0000    
               rinn:    0.0000    
               qcoe:    0.0000    
               qyuk:    0.0000    
               qwid:   0.10000E-01
                rcs:    0.0000      0.0000    
            lambdas:    1.0000      1.0000    
L=1  Nsemic=0  Cnfigmx=2
          n=1  nzeta=2  polorb=1
            splnorm:   0.15000    
               vcte:    0.0000    
               rinn:    0.0000    
               qcoe:    0.0000    
               qyuk:    0.0000    
               qwid:   0.10000E-01
                rcs:    0.0000      0.0000    
            lambdas:    1.0000      1.0000    
-------------------------------------------------------------------------------
L=0  Nkbl=1  erefs: 0.17977+309
L=1  Nkbl=1  erefs: 0.17977+309
L=2  Nkbl=1  erefs: 0.17977+309
===============================================================================
</basis_specs>

atom: Called for C                     (Z =   6)

read_vps: Pseudopotential generation method:
read_vps: ATM3      Troullier-Martins                       
Total valence charge:    4.00000

xc_check: Exchange-correlation functional:
xc_check: Ceperley-Alder
V l=0 = -2*Zval/r beyond r=  1.4666
V l=1 = -2*Zval/r beyond r=  1.5038
V l=2 = -2*Zval/r beyond r=  1.5612
All V_l potentials equal beyond r=  1.5612
This should be close to max(r_c) in ps generation
All pots = -2*Zval/r beyond r=  1.5612

VLOCAL1: 99.0% of the norm of Vloc inside     17.809 Ry
VLOCAL1: 99.9% of the norm of Vloc inside     40.586 Ry
atom: Maximum radius for 4*pi*r*r*local-pseudopot. charge    1.88329
atom: Maximum radius for r*vlocal+2*Zval:    1.62091
GHOST: No ghost state for L =  0
GHOST: No ghost state for L =  1
GHOST: No ghost state for L =  2

KBgen: Kleinman-Bylander projectors: 
   l= 0   rc=  1.747182   el= -1.001947   Ekb=  5.181700   kbcos=  0.300603
   l= 1   rc=  1.747182   el= -0.398598   Ekb= -4.328763   kbcos= -0.367074
   l= 2   rc=  1.955272   el=  0.002326   Ekb= -1.016175   kbcos= -0.009979

KBgen: Total number of  Kleinman-Bylander projectors:    9
atom: -------------------------------------------------------------------------

atom: SANKEY-TYPE ORBITALS:
atom: Selected multiple-zeta basis: split     

SPLIT: Orbitals with angular momentum L= 0

SPLIT: Basis orbitals for state 2s

SPLIT: PAO cut-off radius determined from an
SPLIT: energy shift=  0.010000 Ry

   izeta = 1
                 lambda =    1.000000
                     rc =    4.518360
                 energy =   -0.992087
                kinetic =    0.856755
    potential(screened) =   -1.848843
       potential(ionic) =   -5.436865

   izeta = 2
                 rmatch =    3.475094
              splitnorm =    0.150000
                 energy =   -0.853594
                kinetic =    1.308346
    potential(screened) =   -2.161940
       potential(ionic) =   -6.002045

SPLIT: Orbitals with angular momentum L= 1

SPLIT: Basis orbitals for state 2p

SPLIT: PAO cut-off radius determined from an
SPLIT: energy shift=  0.010000 Ry

   izeta = 1
                 lambda =    1.000000
                     rc =    5.382558
                 energy =   -0.388318
                kinetic =    2.456485
    potential(screened) =   -2.844804
       potential(ionic) =   -6.312273

   izeta = 2
                 rmatch =    3.607901
              splitnorm =    0.150000
                 energy =   -0.250655
                kinetic =    3.636791
    potential(screened) =   -3.887446
       potential(ionic) =   -7.736789

POLgen: Perturbative polarization orbital with L=  2

POLgen: Polarization orbital for state 2p

   izeta = 1
                     rc =    5.382558
                 energy =    1.148490
                kinetic =    2.389078
    potential(screened) =   -1.240587
       potential(ionic) =   -4.090578
atom: Total number of Sankey-type orbitals: 13

atm_pop: Valence configuration (for local Pseudopot. screening):
 2s( 2.00)                                                            
 2p( 2.00)                                                            
Vna: chval, zval:    4.00000   4.00000

Vna:  Cut-off radius for the neutral-atom potential:   5.382558

atom: _________________________________________________________________________

prinput: Basis input ----------------------------------------------------------

PAO.BasisType split     

%block ChemicalSpeciesLabel
    1    1 H                       # Species index, atomic number, species label
    2    6 C                       # Species index, atomic number, species label
%endblock ChemicalSpeciesLabel

%block PAO.Basis                 # Define Basis set
H                     1                    # Species label, number of l-shells
 n=1   0   2 P   1                   # n, l, Nzeta, Polarization, NzetaPol
   5.336      4.002   
   1.000      1.000   
C                     2                    # Species label, number of l-shells
 n=2   0   2                         # n, l, Nzeta 
   4.518      3.475   
   1.000      1.000   
 n=2   1   2 P   1                   # n, l, Nzeta, Polarization, NzetaPol
   5.383      3.608   
   1.000      1.000   
%endblock PAO.Basis

prinput: ----------------------------------------------------------------------

coor:   Atomic-coordinates input format  =     Cartesian coordinates
coor:                                          (in Angstroms)
read_Zmatrix: Length units: Ang       
read_Zmatrix: Angle  units: deg       
read_Zmatrix: Force tolerances:
read_Zmatrix:    for lengths =     0.001556 Ry/Bohr
read_Zmatrix:    for angles  =     0.000421 Ry/rad

read_Zmatrix: Maximum displacements:
read_Zmatrix:    for lengths =     0.188973 Bohr
read_Zmatrix:    for angles  =     0.349066 rad
%block Zmatrix
molecule
      2 0 0 0 xm1 ym1 zm1 0 0 0
      2 1 0 0 CC 90.0 60.0 0 0 0
      2 2 1 0 CC CCC 90.0 0 0 0
      2 3 2 1 CC CCC 0.0 0 0 0
      2 4 3 2 CC CCC 0.0 0 0 0
      2 5 4 3 CC CCC 0.0 0 0 0
      1 1 2 3 CH CCH 180.0 0 0 0
      1 2 1 7 CH CCH 0.0 0 0 0
      1 3 2 8 CH CCH 0.0 0 0 0
      1 4 3 9 CH CCH 0.0 0 0 0
      1 5 4 10 CH CCH 0.0 0 0 0
      1 6 5 11 CH CCH 0.0 0 0 0
constants
        ym1 3.68
variables
        zm1 6.9032294
        CC 1.417
        CH 1.112
        CCH 120.0
        CCC 120.0
constraints
        xm1 CC -1.0 3.903229
%endblock Zmatrix
 nZmol:            1
 nSpecies:            2           2           2           2           2           2           1           1           1           1           1           1

zmatrix: Z-matrix coordinates: (Ang ; deg )
zmatrix: (Fractional coordinates have been converted to cartesian)
molecule    1 (    12 atoms)
      2.48622900      3.68000000      6.90322940
      1.41700000     90.00000000     60.00000000
      1.41700000    120.00000000     90.00000000
      1.41700000    120.00000000      0.00000000
      1.41700000    120.00000000      0.00000000
      1.41700000    120.00000000      0.00000000
      1.11200000    120.00000000    180.00000000
      1.11200000    120.00000000      0.00000000
      1.11200000    120.00000000      0.00000000
      1.11200000    120.00000000      0.00000000
      1.11200000    120.00000000      0.00000000
      1.11200000    120.00000000      0.00000000


Z-matrix Symbol Section -------
Variables
 xm1          2.4862289999999998     
 zm1          6.9032293999999998     
 CCC          120.00000000000017     
 CH           1.1120000000000001     
 CCH          120.00000000000017     
Constants
 ym1          3.6800000000000002     
 CC           1.4170000000000000     
------------ End of Z-matrix Information


siesta: Atomic coordinates (Bohr) and species
siesta:      4.69829   6.95419  13.04522  2        1
siesta:      6.03717   9.27319  13.04522  2        2
siesta:      8.71491   9.27319  13.04522  2        3
siesta:     10.05378   6.95419  13.04522  2        4
siesta:      8.71491   4.63520  13.04522  2        5
siesta:      6.03717   4.63520  13.04522  2        6
siesta:      2.59692   6.95419  13.04522  1        7
siesta:      4.98648  11.09303  13.04522  1        8
siesta:      9.76560  11.09303  13.04522  1        9
siesta:     12.15516   6.95419  13.04522  1       10
siesta:      9.76560   2.81536  13.04522  1       11
siesta:      4.98648   2.81536  13.04522  1       12

siesta: Automatic unit cell vectors (Ang):
siesta:   11.776283    0.000000    0.000000
siesta:    0.000000   11.030875    0.000000
siesta:    0.000000    0.000000    6.266317

siesta: System type = molecule  

initatomlists: Number of atoms, orbitals, and projectors:     12   108   108

siesta: ******************** Simulation parameters ****************************
siesta:
siesta: The following are some of the parameters of the simulation.
siesta: A complete list of the parameters used, including default values,
siesta: can be found in file out.fdf
siesta:
redata: Spin configuration                          = none
redata: Number of spin components                   = 1
redata: Time-Reversal Symmetry                      = T
redata: Spin-spiral                                 = F
redata: Long output                                 =   F
redata: Number of Atomic Species                    =        2
redata: Charge density info will appear in .RHO file
redata: Write Mulliken Pop.                         = NO
redata: Matel table size (NRTAB)                    =     1024
redata: Mesh Cutoff                                 =   120.0000 Ry
redata: Net charge of the system                    =     0.0000 |e|
redata: Min. number of SCF Iter                     =        0
redata: Max. number of SCF Iter                     =     1000
redata: SCF convergence failure will abort job
redata: SCF mix quantity                            = Hamiltonian
redata: Mix DM or H after convergence               =   F
redata: Recompute H after scf cycle                 =   F
redata: Mix DM in first SCF step                    =   T
redata: Write Pulay info on disk                    =   F
redata: New DM Mixing Weight                        =     0.3000
redata: New DM Occupancy tolerance                  = 0.000000000001
redata: No kicks to SCF
redata: DM Mixing Weight for Kicks                  =     0.5000
redata: Require Harris convergence for SCF          =   F
redata: Harris energy tolerance for SCF             =     0.000100 eV
redata: Require DM convergence for SCF              =   T
redata: DM tolerance for SCF                        =     0.000100
redata: Require EDM convergence for SCF             =   F
redata: EDM tolerance for SCF                       =     0.001000 eV
redata: Require H convergence for SCF               =   T
redata: Hamiltonian tolerance for SCF               =     0.001000 eV
redata: Require (free) Energy convergence for SCF   =   F
redata: (free) Energy tolerance for SCF             =     0.000100 eV
redata: Using Saved Data (generic)                  =   F
redata: Use continuation files for DM               =   F
redata: Neglect nonoverlap interactions             =   F
redata: Method of Calculation                       = Diagonalization
redata: Electronic Temperature                      =   299.9869 K
redata: Fix the spin of the system                  =   F
redata: Dynamics option                             = CG coord. optimization
redata: Variable cell                               =   F
redata: Use continuation files for CG               =   F
redata: Max atomic displ per move                   =     0.1058 Ang
redata: Maximum number of CG moves                  =       40
redata: Force tolerance                             =     0.0400 eV/Ang
mix.SCF: Pulay mixing                            = Pulay
mix.SCF:    Variant                              = stable
mix.SCF:    History steps                        = 5
mix.SCF:    Linear mixing weight                 =     0.300000
mix.SCF:    Mixing weight                        =     0.300000
mix.SCF:    SVD condition                        = 0.1000E-07
redata: ***********************************************************************

%block SCF.Mixers
  Pulay
%endblock SCF.Mixers

%block SCF.Mixer.Pulay
  # Mixing method
  method pulay
  variant stable

  # Mixing options
  weight 0.3000
  weight.linear 0.3000
  history 5
%endblock SCF.Mixer.Pulay

DM_history_depth set to one: no extrapolation allowed by default for geometry relaxation
Size of DM history Fstack: 1
Total number of electrons:    30.000000
Total ionic charge:    30.000000
 Kpoints in:            1 . Kpoints trimmed:            1

siesta: k-grid: Number of k-points =     1
siesta: k-grid: Cutoff (effective) =     3.133 Ang
siesta: k-grid: Supercell and displacements
siesta: k-grid:    1   0   0      0.000
siesta: k-grid:    0   1   0      0.000
siesta: k-grid:    0   0   1      0.000

diag: Algorithm                                     = D&C
diag: Used triangular part                          = Lower
diag: Absolute tolerance                            =  0.100E-15
diag: Orthogonalization factor                      =  0.100E-05
diag: Memory factor                                 =  1.0000


ts: **************************************************************
ts: Save H and S matrices                           =    F
ts: Save DM and EDM matrices                        =    F
ts: Fix Hartree potential                           =    F
ts: Only save the overlap matrix S                  =    F
ts: **************************************************************

************************ Begin: TS CHECKS AND WARNINGS ************************
************************ End: TS CHECKS AND WARNINGS **************************


                     ====================================
                        Begin CG opt. move =      0

zmatrix: Z-matrix coordinates: (Ang ; deg )
zmatrix: (Fractional coordinates have been converted to cartesian)
molecule    1 (    12 atoms)
      2.48622900      3.68000000      6.90322940
      1.41700000     90.00000000     60.00000000
      1.41700000    120.00000000     90.00000000
      1.41700000    120.00000000      0.00000000
      1.41700000    120.00000000      0.00000000
      1.41700000    120.00000000      0.00000000
      1.11200000    120.00000000    180.00000000
      1.11200000    120.00000000      0.00000000
      1.11200000    120.00000000      0.00000000
      1.11200000    120.00000000      0.00000000
      1.11200000    120.00000000      0.00000000
      1.11200000    120.00000000      0.00000000


Z-matrix Symbol Section -------
Variables
 xm1          2.4862289999999998     
 zm1          6.9032293999999998     
 CCC          120.00000000000017     
 CH           1.1120000000000001     
 CCH          120.00000000000017     
Constants
 ym1          3.6800000000000002     
 CC           1.4170000000000000     
------------ End of Z-matrix Information

                     ====================================

outcell: Unit cell vectors (Ang):
       11.776283    0.000000    0.000000
        0.000000   11.030875    0.000000
        0.000000    0.000000    6.266317

outcell: Cell vector modules (Ang)   :   11.776283   11.030875    6.266317
outcell: Cell angles (23,13,12) (deg):     90.0000     90.0000     90.0000
outcell: Cell volume (Ang**3)        :    814.0116
<dSpData1D:S at geom step 0
  <sparsity:sparsity for geom step 0
    nrows_g=108 nrows=108 sparsity=.9995 nnzs=11658, refcount: 7>
  <dData1D:(new from dSpData1D) n=11658, refcount: 1>
refcount: 1>
new_DM -- step:     1
Initializing Density Matrix...
DM filled with atomic data:
<dSpData2D:DM initialized from atoms
  <sparsity:sparsity for geom step 0
    nrows_g=108 nrows=108 sparsity=.9995 nnzs=11658, refcount: 8>
  <dData2D:DM n=11658 m=1, refcount: 1>
refcount: 1>
No. of atoms with KB's overlaping orbs in proc 0. Max # of overlaps:      12     101
New grid distribution:   1
           1       1:   40    1:   40    1:   24

InitMesh: MESH =    80 x    80 x    48 =      307200
InitMesh: (bp) =    40 x    40 x    24 =       38400
InitMesh: Mesh cutoff (required, used) =   120.000   127.546 Ry
ExtMesh (bp) on 0 =    80 x    84 x    68 =      456960
PhiOnMesh: Number of (b)points on node 0 =                38400
PhiOnMesh: nlist on node 0 =               432178

stepf: Fermi-Dirac step function

siesta: Program's energy decomposition (eV):
siesta: Ebs     =      -283.756039
siesta: Eions   =      1613.953835
siesta: Ena     =       340.735980
siesta: Ekin    =       771.608052
siesta: Enl     =      -127.548939
siesta: Eso     =         0.000000
siesta: Eldau   =         0.000000
siesta: DEna    =       -59.244222
siesta: DUscf   =         7.993392
siesta: DUext   =         0.000000
siesta: Enegf   =         0.000000
siesta: Exc     =      -341.223486
siesta: eta*DQ  =         0.000000
siesta: Emadel  =         0.000000
siesta: Emeta   =         0.000000
siesta: Emolmec =         0.000000
siesta: Ekinion =         0.000000
siesta: Eharris =     -1027.961967
siesta: Etot    =     -1021.633059
siesta: FreeEng =     -1021.633059

        iscf     Eharris(eV)        E_KS(eV)     FreeEng(eV)     dDmax    Ef(eV) dHmax(eV)
   scf:    1    -1027.961967    -1021.633059    -1021.633059  1.955413 -7.720104  6.828620
timer: Routine,Calls,Time,% = IterSCF        1       0.455  13.49
   scf:    2    -1024.813313    -1023.460447    -1023.460447  0.092869 -5.867712  2.815933
   scf:    3    -1023.979456    -1023.802977    -1023.802977  0.070391 -4.658412  0.588248
   scf:    4    -1023.845871    -1023.829701    -1023.829701  0.017417 -4.544960  0.127396
   scf:    5    -1023.826468    -1023.829198    -1023.829198  0.006754 -4.390607  0.165473
   scf:    6    -1023.831380    -1023.830911    -1023.830911  0.003284 -4.470788  0.022340
   scf:    7    -1023.830940    -1023.830942    -1023.830942  0.000588 -4.456690  0.007874
   scf:    8    -1023.830943    -1023.830941    -1023.830941  0.000167 -4.460242  0.000155
   scf:    9    -1023.830941    -1023.830941    -1023.830941  0.000004 -4.460267  0.000105

SCF Convergence by DM+H criterion
max |DM_out - DM_in|         :     0.0000040882
max |H_out - H_in|      (eV) :     0.0001052961
SCF cycle converged after 9 iterations

Using DM_out to compute the final energy and forces
No. of atoms with KB's overlaping orbs in proc 0. Max # of overlaps:      12     101

siesta: E_KS(eV) =            -1023.8309

siesta: E_KS - E_eggbox =     -1023.8309

zmatrix: Atomic forces (eV/Ang ; eV/deg )
zmatrix: (No information if symbols are used)
molecule    1 (    12 atoms)
     1    0.000000    0.000000    0.000000
     2    0.000000    0.000000    0.000000
     3    0.000000    0.000000    0.000000
     4    0.000000    0.000000    0.000000
     5    0.000000    0.000000    0.000000
     6    0.000000    0.000000    0.000000
     7    0.000000    0.000000    0.000000
     8    0.000000    0.000000    0.000000
     9    0.000000    0.000000    0.000000
    10    0.000000    0.000000    0.000000
    11    0.000000    0.000000    0.000000
    12    0.000000    0.000000    0.000000


Variable forces (eV/Ang ; eV/deg )
 xm1          5.4368511696065829     
 zm1          3.1232004768019161E-003
 CCC        -0.11662143712817057     
 CH         -0.84284002475182751     
 CCH          5.9032554521422514E-005

siesta: Atomic forces (eV/Ang):
----------------------------------------
   Tot   -0.000718   -0.010425    0.003123
----------------------------------------
   Max    0.766889
   Res    0.317806    sqrt( Sum f_i^2 / 3N )
----------------------------------------
   Max    0.766889    constrained

Stress-tensor-Voigt (kbar):        8.52        8.48       -0.06        0.00        0.00        0.00
(Free)E + p*V (eV/cell)    -1026.7005
Target enthalpy (eV/cell)    -1023.8309

                     ====================================
                        Begin CG opt. move =      1

zmatrix: Z-matrix coordinates: (Ang ; deg )
zmatrix: (Fractional coordinates have been converted to cartesian)
molecule    1 (    12 atoms)
      2.56576353      3.68000000      6.90327509
      1.33746547     90.00000000     60.00000000
      1.33746547    100.00000000     90.00000000
      1.33746547    100.00000000      0.00000000
      1.33746547    100.00000000      0.00000000
      1.33746547    100.00000000      0.00000000
      1.09967027    120.01012379    180.00000000
      1.09967027    120.01012379      0.00000000
      1.09967027    120.01012379      0.00000000
      1.09967027    120.01012379      0.00000000
      1.09967027    120.01012379      0.00000000
      1.09967027    120.01012379      0.00000000


Z-matrix Symbol Section -------
Variables
 xm1          2.5657635276876563     
 zm1          6.9032750886287753     
 CCC          99.999999995433569     
 CH           1.0996702743566660     
 CCH          120.01012379130108     
Constants
 ym1          3.6800000000000002     
 CC           1.3374654723123436     
------------ End of Z-matrix Information

                     ====================================

outcell: Unit cell vectors (Ang):
       11.776283    0.000000    0.000000
        0.000000   11.030875    0.000000
        0.000000    0.000000    6.266317

outcell: Cell vector modules (Ang)   :   11.776283   11.030875    6.266317
outcell: Cell angles (23,13,12) (deg):     90.0000     90.0000     90.0000
outcell: Cell volume (Ang**3)        :    814.0116
<dSpData1D:S at geom step 1
  <sparsity:sparsity for geom step 1
    nrows_g=108 nrows=108 sparsity=1.0000 nnzs=11664, refcount: 7>
  <dData1D:(new from dSpData1D) n=11664, refcount: 1>
refcount: 1>
new_DM -- step:     2
Re-using DM from previous geometries...
Number of DMs in history: 1
 DM extrapolation coefficients: 
1   1.00000
New DM after history re-use:
<dSpData2D:SpM extrapolated using coords
  <sparsity:sparsity for geom step 1
    nrows_g=108 nrows=108 sparsity=1.0000 nnzs=11664, refcount: 9>
  <dData2D:(temp array for extrapolation) n=11664 m=1, refcount: 1>
refcount: 1>
Note: For starting DM, Qtot, Tr[D*S] =         30.00000000         25.42949047
No. of atoms with KB's overlaping orbs in proc 0. Max # of overlaps:      12     108
New grid distribution:   1
           1       1:   40    1:   40    1:   24

InitMesh: MESH =    80 x    80 x    48 =      307200
InitMesh: (bp) =    40 x    40 x    24 =       38400
InitMesh: Mesh cutoff (required, used) =   120.000   127.546 Ry
ExtMesh (bp) on 0 =    80 x    84 x    68 =      456960
PhiOnMesh: Number of (b)points on node 0 =                38400
PhiOnMesh: nlist on node 0 =               431713

        iscf     Eharris(eV)        E_KS(eV)     FreeEng(eV)     dDmax    Ef(eV) dHmax(eV)
   scf:    1     -536.018324     -777.815988     -777.815991  5.130933 -6.320276 55.092484
   scf:    2     2097.427826       70.530520       70.530258  8.714001  1.989757149.574120
   scf:    3     -926.068187     -863.044471     -863.044471  8.607928 -4.674005 16.195606
   scf:    4     -873.924085     -871.166502     -871.168084  0.784204 -3.498129  3.224091
   scf:    5     -870.522308     -871.317367     -871.318062  0.681533 -3.385993  2.636027
   scf:    6     -871.377097     -871.671682     -871.687345  0.581720 -3.111708  1.429139
   scf:    7     -871.876958     -871.859510     -871.880391  0.258225 -3.014528  0.640916
   scf:    8     -871.821971     -871.851246     -871.894788  0.143026 -2.951356  0.295720
   scf:    9     -871.870680     -871.863825     -871.899090  0.053685 -2.936731  0.157488
   scf:   10     -871.856630     -871.863555     -871.899770  0.062909 -2.926280  0.087552
   scf:   11     -871.861583     -871.866277     -871.899418  0.063995 -2.922624  0.122582
   scf:   12     -871.867160     -871.867767     -871.901746  0.035884 -2.918543  0.015780
   scf:   13     -871.867233     -871.867505     -871.901754  0.002100 -2.921667  0.007926
   scf:   14     -871.867612     -871.867560     -871.901761  0.001392 -2.923623  0.001941
   scf:   15     -871.867526     -871.867543     -871.901761  0.000231 -2.924158  0.001299
   scf:   16     -871.867563     -871.867553     -871.901761  0.000372 -2.924342  0.000537
   scf:   17     -871.867547     -871.867550     -871.901761  0.000082 -2.924375  0.000261

SCF Convergence by DM+H criterion
max |DM_out - DM_in|         :     0.0000820849
max |H_out - H_in|      (eV) :     0.0002607113
SCF cycle converged after 17 iterations

Using DM_out to compute the final energy and forces
No. of atoms with KB's overlaping orbs in proc 0. Max # of overlaps:      12     108

siesta: E_KS(eV) =             -871.8676

zmatrix: Atomic forces (eV/Ang ; eV/deg )
zmatrix: (No information if symbols are used)
molecule    1 (    12 atoms)
     1    0.000000    0.000000    0.000000
     2    0.000000    0.000000    0.000000
     3    0.000000    0.000000    0.000000
     4    0.000000    0.000000    0.000000
     5    0.000000    0.000000    0.000000
     6    0.000000    0.000000    0.000000
     7    0.000000    0.000000    0.000000
     8    0.000000    0.000000    0.000000
     9    0.000000    0.000000    0.000000
    10    0.000000    0.000000    0.000000
    11    0.000000    0.000000    0.000000
    12    0.000000    0.000000    0.000000


Variable forces (eV/Ang ; eV/deg )
 xm1         -435.88646868118644     
 zm1          7.2520670417201526E-003
 CCC          19.668869432138685     
 CH           32.318293662416188     
 CCH          3.6780460221331496E-002

siesta: Atomic forces (eV/Ang):
----------------------------------------
   Tot   -0.008726    0.048874    0.007252
----------------------------------------
   Max  230.270405
   Res   70.801375    sqrt( Sum f_i^2 / 3N )
----------------------------------------
   Max  230.270405    constrained

Stress-tensor-Voigt (kbar):     -386.89     -830.44       -0.04      -73.53       -0.00       -0.00
(Free)E + p*V (eV/cell)     -665.7346
Target enthalpy (eV/cell)     -871.9018

                     ====================================
                        Begin CG opt. move =      2

zmatrix: Z-matrix coordinates: (Ang ; deg )
zmatrix: (Fractional coordinates have been converted to cartesian)
molecule    1 (    12 atoms)
      2.48674087      3.68000000      6.90322969
      1.41648813     90.00000000     60.00000000
      1.41648813    119.87128394     90.00000000
      1.41648813    119.87128394      0.00000000
      1.41648813    119.87128394      0.00000000
      1.41648813    119.87128394      0.00000000
      1.11192065    120.00006515    180.00000000
      1.11192065    120.00006515      0.00000000
      1.11192065    120.00006515      0.00000000
      1.11192065    120.00006515      0.00000000
      1.11192065    120.00006515      0.00000000
      1.11192065    120.00006515      0.00000000


Z-matrix Symbol Section -------
Variables
 xm1          2.4867408685338992     
 zm1          6.9032296940430031     
 CCC          119.87128394449617     
 CH           1.1119206483175053     
 CCH          120.00006515472431     
Constants
 ym1          3.6800000000000002     
 CC           1.4164881314661006     
------------ End of Z-matrix Information

                     ====================================

outcell: Unit cell vectors (Ang):
       11.776283    0.000000    0.000000
        0.000000   11.030875    0.000000
        0.000000    0.000000    6.266317

outcell: Cell vector modules (Ang)   :   11.776283   11.030875    6.266317
outcell: Cell angles (23,13,12) (deg):     90.0000     90.0000     90.0000
outcell: Cell volume (Ang**3)        :    814.0116
<dSpData1D:S at geom step 2
  <sparsity:sparsity for geom step 2
    nrows_g=108 nrows=108 sparsity=.9995 nnzs=11658, refcount: 7>
  <dData1D:(new from dSpData1D) n=11658, refcount: 1>
refcount: 1>
new_DM -- step:     3
Re-using DM from previous geometries...
Number of DMs in history: 1
 DM extrapolation coefficients: 
1   1.00000
New DM after history re-use:
<dSpData2D:SpM extrapolated using coords
  <sparsity:sparsity for geom step 2
    nrows_g=108 nrows=108 sparsity=.9995 nnzs=11658, refcount: 9>
  <dData2D:(temp array for extrapolation) n=11658 m=1, refcount: 1>
refcount: 1>
Note: For starting DM, Qtot, Tr[D*S] =         30.00000000         31.64260172
No. of atoms with KB's overlaping orbs in proc 0. Max # of overlaps:      12     101
New grid distribution:   1
           1       1:   40    1:   40    1:   24

InitMesh: MESH =    80 x    80 x    48 =      307200
InitMesh: (bp) =    40 x    40 x    24 =       38400
InitMesh: Mesh cutoff (required, used) =   120.000   127.546 Ry
ExtMesh (bp) on 0 =    80 x    84 x    68 =      456960
PhiOnMesh: Number of (b)points on node 0 =                38400
PhiOnMesh: nlist on node 0 =               432182

        iscf     Eharris(eV)        E_KS(eV)     FreeEng(eV)     dDmax    Ef(eV) dHmax(eV)
   scf:    1     -500.791427     -835.311073     -835.311483  2.558268 -2.631991 47.538898
   scf:    2     4818.529944      812.678668      812.678666  3.829034 -6.089903148.440236
   scf:    3    -1420.630918    -1022.003028    -1022.003028  3.771517 -5.556066  4.116018
   scf:    4    -1024.257195    -1023.300446    -1023.300446  0.036799 -5.081704  2.258702
   scf:    5    -1024.131489    -1023.778189    -1023.778189  0.026574 -4.632017  0.948932
   scf:    6    -1023.878810    -1023.833421    -1023.833421  0.008018 -4.538374  0.293333
   scf:    7    -1023.847946    -1023.841801    -1023.841801  0.004932 -4.478571  0.066047
   scf:    8    -1023.842933    -1023.842409    -1023.842409  0.002439 -4.459716  0.028972
   scf:    9    -1023.842559    -1023.842498    -1023.842498  0.000738 -4.456518  0.004230
   scf:   10    -1023.842502    -1023.842500    -1023.842500  0.000095 -4.456666  0.002906
   scf:   11    -1023.842503    -1023.842502    -1023.842502  0.000153 -4.456479  0.000960
   scf:   12    -1023.842502    -1023.842502    -1023.842502  0.000033 -4.456464  0.000452

SCF Convergence by DM+H criterion
max |DM_out - DM_in|         :     0.0000333951
max |H_out - H_in|      (eV) :     0.0004520512
SCF cycle converged after 12 iterations

Using DM_out to compute the final energy and forces
No. of atoms with KB's overlaping orbs in proc 0. Max # of overlaps:      12     101

siesta: E_KS(eV) =            -1023.8425

zmatrix: Atomic forces (eV/Ang ; eV/deg )
zmatrix: (No information if symbols are used)
molecule    1 (    12 atoms)
     1    0.000000    0.000000    0.000000
     2    0.000000    0.000000    0.000000
     3    0.000000    0.000000    0.000000
     4    0.000000    0.000000    0.000000
     5    0.000000    0.000000    0.000000
     6    0.000000    0.000000    0.000000
     7    0.000000    0.000000    0.000000
     8    0.000000    0.000000    0.000000
     9    0.000000    0.000000    0.000000
    10    0.000000    0.000000    0.000000
    11    0.000000    0.000000    0.000000
    12    0.000000    0.000000    0.000000


Variable forces (eV/Ang ; eV/deg )
 xm1          4.5213272441743868     
 zm1          2.3650090959685777E-003
 CCC         -2.1217833921185755E-002
 CH         -0.81811121126695974     
 CCH         -7.9933628605812347E-004

siesta: Atomic forces (eV/Ang):
----------------------------------------
   Tot    0.008728   -0.005822    0.002365
----------------------------------------
   Max    0.748957
   Res    0.294718    sqrt( Sum f_i^2 / 3N )
----------------------------------------
   Max    0.748957    constrained

Stress-tensor-Voigt (kbar):        7.75        6.64       -0.05        0.89        0.00        0.00
(Free)E + p*V (eV/cell)    -1026.2696
Target enthalpy (eV/cell)    -1023.8425

cgvc_zmatrix: Finished line minimization    1.  Mean atomic displacement =    0.0007

                     ====================================
                        Begin CG opt. move =      3

zmatrix: Z-matrix coordinates: (Ang ; deg )
zmatrix: (Fractional coordinates have been converted to cartesian)
molecule    1 (    12 atoms)
      2.48800673      3.68000000      6.90323034
      1.41522227     90.00000000     60.00000000
      1.41522227    119.85502694     90.00000000
      1.41522227    119.85502694      0.00000000
      1.41522227    119.85502694      0.00000000
      1.41522227    119.85502694      0.00000000
      1.11168455    119.99684379    180.00000000
      1.11168455    119.99684379      0.00000000
      1.11168455    119.99684379      0.00000000
      1.11168455    119.99684379      0.00000000
      1.11168455    119.99684379      0.00000000
      1.11168455    119.99684379      0.00000000


Z-matrix Symbol Section -------
Variables
 xm1          2.4880067263661174     
 zm1          6.9032303422260517     
 CCC          119.85502693843806     
 CH           1.1116845537881574     
 CCH          119.99684379371976     
Constants
 ym1          3.6800000000000002     
 CC           1.4152222736338824     
------------ End of Z-matrix Information

                     ====================================

outcell: Unit cell vectors (Ang):
       11.776283    0.000000    0.000000
        0.000000   11.030875    0.000000
        0.000000    0.000000    6.266317

outcell: Cell vector modules (Ang)   :   11.776283   11.030875    6.266317
outcell: Cell angles (23,13,12) (deg):     90.0000     90.0000     90.0000
outcell: Cell volume (Ang**3)        :    814.0116
<dSpData1D:S at geom step 3
  <sparsity:sparsity for geom step 3
    nrows_g=108 nrows=108 sparsity=.9995 nnzs=11658, refcount: 7>
  <dData1D:(new from dSpData1D) n=11658, refcount: 1>
refcount: 1>
new_DM -- step:     4
Re-using DM from previous geometries...
Number of DMs in history: 1
 DM extrapolation coefficients: 
1   1.00000
New DM after history re-use:
<dSpData2D:SpM extrapolated using coords
  <sparsity:sparsity for geom step 3
    nrows_g=108 nrows=108 sparsity=.9995 nnzs=11658, refcount: 9>
  <dData2D:(temp array for extrapolation) n=11658 m=1, refcount: 1>
refcount: 1>
No. of atoms with KB's overlaping orbs in proc 0. Max # of overlaps:      12     101
New grid distribution:   1
           1       1:   40    1:   40    1:   24

InitMesh: MESH =    80 x    80 x    48 =      307200
InitMesh: (bp) =    40 x    40 x    24 =       38400
InitMesh: Mesh cutoff (required, used) =   120.000   127.546 Ry
ExtMesh (bp) on 0 =    80 x    84 x    68 =      456960
PhiOnMesh: Number of (b)points on node 0 =                38400
PhiOnMesh: nlist on node 0 =               432197

        iscf     Eharris(eV)        E_KS(eV)     FreeEng(eV)     dDmax    Ef(eV) dHmax(eV)
   scf:    1    -1023.800769    -1023.848185    -1023.848185  0.002222 -4.450790  0.035860
   scf:    2    -1023.846824    -1023.847823    -1023.847823  0.001829 -4.461980  0.089959
   scf:    3    -1023.848385    -1023.848265    -1023.848265  0.001319 -4.454582  0.002472
   scf:    4    -1023.848267    -1023.848267    -1023.848267  0.000079 -4.454583  0.001036
   scf:    5    -1023.848267    -1023.848267    -1023.848267  0.000063 -4.454307  0.000159

SCF Convergence by DM+H criterion
max |DM_out - DM_in|         :     0.0000633285
max |H_out - H_in|      (eV) :     0.0001593852
SCF cycle converged after 5 iterations

Using DM_out to compute the final energy and forces
No. of atoms with KB's overlaping orbs in proc 0. Max # of overlaps:      12     101

siesta: E_KS(eV) =            -1023.8483

zmatrix: Atomic forces (eV/Ang ; eV/deg )
zmatrix: (No information if symbols are used)
molecule    1 (    12 atoms)
     1    0.000000    0.000000    0.000000
     2    0.000000    0.000000    0.000000
     3    0.000000    0.000000    0.000000
     4    0.000000    0.000000    0.000000
     5    0.000000    0.000000    0.000000
     6    0.000000    0.000000    0.000000
     7    0.000000    0.000000    0.000000
     8    0.000000    0.000000    0.000000
     9    0.000000    0.000000    0.000000
    10    0.000000    0.000000    0.000000
    11    0.000000    0.000000    0.000000
    12    0.000000    0.000000    0.000000


Variable forces (eV/Ang ; eV/deg )
 xm1          4.0704513271520382     
 zm1          2.2875879396559782E-003
 CCC         -1.3860121030266519E-003
 CH         -0.76654581145440792     
 CCH         -8.4537056207849390E-004

siesta: Atomic forces (eV/Ang):
----------------------------------------
   Tot    0.009515   -0.002737    0.002288
----------------------------------------
   Max    0.699595
   Res    0.281829    sqrt( Sum f_i^2 / 3N )
----------------------------------------
   Max    0.699595    constrained

Stress-tensor-Voigt (kbar):        7.13        5.87       -0.05        1.00        0.00        0.00
(Free)E + p*V (eV/cell)    -1026.0405
Target enthalpy (eV/cell)    -1023.8483

                     ====================================
                        Begin CG opt. move =      4

zmatrix: Z-matrix coordinates: (Ang ; deg )
zmatrix: (Fractional coordinates have been converted to cartesian)
molecule    1 (    12 atoms)
      2.49003210      3.68000000      6.90323138
      1.41319690     90.00000000     60.00000000
      1.41319690    119.82901573     90.00000000
      1.41319690    119.82901573      0.00000000
      1.41319690    119.82901573      0.00000000
      1.41319690    119.82901573      0.00000000
      1.11130680    119.99168962    180.00000000
      1.11130680    119.99168962      0.00000000
      1.11130680    119.99168962      0.00000000
      1.11130680    119.99168962      0.00000000
      1.11130680    119.99168962      0.00000000
      1.11130680    119.99168962      0.00000000


Z-matrix Symbol Section -------
Variables
 xm1          2.4900320988976667     
 zm1          6.9032313793189299     
 CCC          119.82901572874502     
 CH           1.1113068025412010     
 CCH          119.99168961611248     
Constants
 ym1          3.6800000000000002     
 CC           1.4131969011023331     
------------ End of Z-matrix Information

                     ====================================

outcell: Unit cell vectors (Ang):
       11.776283    0.000000    0.000000
        0.000000   11.030875    0.000000
        0.000000    0.000000    6.266317

outcell: Cell vector modules (Ang)   :   11.776283   11.030875    6.266317
outcell: Cell angles (23,13,12) (deg):     90.0000     90.0000     90.0000
outcell: Cell volume (Ang**3)        :    814.0116
<dSpData1D:S at geom step 4
  <sparsity:sparsity for geom step 4
    nrows_g=108 nrows=108 sparsity=.9995 nnzs=11658, refcount: 7>
  <dData1D:(new from dSpData1D) n=11658, refcount: 1>
refcount: 1>
new_DM -- step:     5
Re-using DM from previous geometries...
Number of DMs in history: 1
 DM extrapolation coefficients: 
1   1.00000
New DM after history re-use:
<dSpData2D:SpM extrapolated using coords
  <sparsity:sparsity for geom step 4
    nrows_g=108 nrows=108 sparsity=.9995 nnzs=11658, refcount: 9>
  <dData2D:(temp array for extrapolation) n=11658 m=1, refcount: 1>
refcount: 1>
No. of atoms with KB's overlaping orbs in proc 0. Max # of overlaps:      12     101
New grid distribution:   1
           1       1:   40    1:   40    1:   24

InitMesh: MESH =    80 x    80 x    48 =      307200
InitMesh: (bp) =    40 x    40 x    24 =       38400
InitMesh: Mesh cutoff (required, used) =   120.000   127.546 Ry
ExtMesh (bp) on 0 =    80 x    84 x    68 =      456960
PhiOnMesh: Number of (b)points on node 0 =                38400
PhiOnMesh: nlist on node 0 =               432112

        iscf     Eharris(eV)        E_KS(eV)     FreeEng(eV)     dDmax    Ef(eV) dHmax(eV)
   scf:    1    -1023.778856    -1023.855431    -1023.855431  0.003503 -4.445194  0.056185
   scf:    2    -1023.852110    -1023.854546    -1023.854546  0.002844 -4.463074  0.140607
   scf:    3    -1023.855935    -1023.855642    -1023.855642  0.002048 -4.451214  0.003903
   scf:    4    -1023.855647    -1023.855645    -1023.855645  0.000126 -4.451209  0.001655
   scf:    5    -1023.855646    -1023.855645    -1023.855645  0.000100 -4.450772  0.000255
   scf:    6    -1023.855645    -1023.855645    -1023.855645  0.000010 -4.450750  0.000137

SCF Convergence by DM+H criterion
max |DM_out - DM_in|         :     0.0000097014
max |H_out - H_in|      (eV) :     0.0001374778
SCF cycle converged after 6 iterations

Using DM_out to compute the final energy and forces
No. of atoms with KB's overlaping orbs in proc 0. Max # of overlaps:      12     101

siesta: E_KS(eV) =            -1023.8556

zmatrix: Atomic forces (eV/Ang ; eV/deg )
zmatrix: (No information if symbols are used)
molecule    1 (    12 atoms)
     1    0.000000    0.000000    0.000000
     2    0.000000    0.000000    0.000000
     3    0.000000    0.000000    0.000000
     4    0.000000    0.000000    0.000000
     5    0.000000    0.000000    0.000000
     6    0.000000    0.000000    0.000000
     7    0.000000    0.000000    0.000000
     8    0.000000    0.000000    0.000000
     9    0.000000    0.000000    0.000000
    10    0.000000    0.000000    0.000000
    11    0.000000    0.000000    0.000000
    12    0.000000    0.000000    0.000000


Variable forces (eV/Ang ; eV/deg )
 xm1          3.3462156766925557     
 zm1          2.0932718055692982E-003
 CCC          3.0864614445742091E-002
 CH         -0.68418886009277191     
 CCH         -9.3791036489395232E-004

siesta: Atomic forces (eV/Ang):
----------------------------------------
   Tot    0.004900   -0.001628    0.002093
----------------------------------------
   Max    0.707900
   Res    0.269831    sqrt( Sum f_i^2 / 3N )
----------------------------------------
   Max    0.707900    constrained

Stress-tensor-Voigt (kbar):        6.14        4.64       -0.05        1.19        0.00       -0.00
(Free)E + p*V (eV/cell)    -1025.6717
Target enthalpy (eV/cell)    -1023.8556

                     ====================================
                        Begin CG opt. move =      5

zmatrix: Z-matrix coordinates: (Ang ; deg )
zmatrix: (Fractional coordinates have been converted to cartesian)
molecule    1 (    12 atoms)
      2.49327269      3.68000000      6.90323304
      1.40995631     90.00000000     60.00000000
      1.40995631    119.78739779     90.00000000
      1.40995631    119.78739779      0.00000000
      1.40995631    119.78739779      0.00000000
      1.40995631    119.78739779      0.00000000
      1.11070240    119.98344293    180.00000000
      1.11070240    119.98344293      0.00000000
      1.11070240    119.98344293      0.00000000
      1.11070240    119.98344293      0.00000000
      1.11070240    119.98344293      0.00000000
      1.11070240    119.98344293      0.00000000


Z-matrix Symbol Section -------
Variables
 xm1          2.4932726949481454     
 zm1          6.9032330386675351     
 CCC          119.78739779323621     
 CH           1.1107024005460704     
 CCH          119.98344293194083     
Constants
 ym1          3.6800000000000002     
 CC           1.4099563050518544     
------------ End of Z-matrix Information

                     ====================================

outcell: Unit cell vectors (Ang):
       11.776283    0.000000    0.000000
        0.000000   11.030875    0.000000
        0.000000    0.000000    6.266317

outcell: Cell vector modules (Ang)   :   11.776283   11.030875    6.266317
outcell: Cell angles (23,13,12) (deg):     90.0000     90.0000     90.0000
outcell: Cell volume (Ang**3)        :    814.0116
<dSpData1D:S at geom step 5
  <sparsity:sparsity for geom step 5
    nrows_g=108 nrows=108 sparsity=.9995 nnzs=11658, refcount: 7>
  <dData1D:(new from dSpData1D) n=11658, refcount: 1>
refcount: 1>
new_DM -- step:     6
Re-using DM from previous geometries...
Number of DMs in history: 1
 DM extrapolation coefficients: 
1   1.00000
New DM after history re-use:
<dSpData2D:SpM extrapolated using coords
  <sparsity:sparsity for geom step 5
    nrows_g=108 nrows=108 sparsity=.9995 nnzs=11658, refcount: 9>
  <dData2D:(temp array for extrapolation) n=11658 m=1, refcount: 1>
refcount: 1>
No. of atoms with KB's overlaping orbs in proc 0. Max # of overlaps:      12     101
New grid distribution:   1
           1       1:   40    1:   40    1:   24

InitMesh: MESH =    80 x    80 x    48 =      307200
InitMesh: (bp) =    40 x    40 x    24 =       38400
InitMesh: Mesh cutoff (required, used) =   120.000   127.546 Ry
ExtMesh (bp) on 0 =    80 x    84 x    68 =      456960
PhiOnMesh: Number of (b)points on node 0 =                38400
PhiOnMesh: nlist on node 0 =               432128

        iscf     Eharris(eV)        E_KS(eV)     FreeEng(eV)     dDmax    Ef(eV) dHmax(eV)
   scf:    1    -1023.737698    -1023.862002    -1023.862002  0.005593 -4.436696  0.087370
   scf:    2    -1023.854123    -1023.859898    -1023.859898  0.004360 -4.465330  0.217431
   scf:    3    -1023.863195    -1023.862497    -1023.862497  0.003130 -4.446246  0.006221
   scf:    4    -1023.862510    -1023.862504    -1023.862504  0.000204 -4.446213  0.002652
   scf:    5    -1023.862506    -1023.862505    -1023.862505  0.000159 -4.445518  0.000410
   scf:    6    -1023.862505    -1023.862505    -1023.862505  0.000016 -4.445482  0.000219

SCF Convergence by DM+H criterion
max |DM_out - DM_in|         :     0.0000157234
max |H_out - H_in|      (eV) :     0.0002185285
SCF cycle converged after 6 iterations

Using DM_out to compute the final energy and forces
No. of atoms with KB's overlaping orbs in proc 0. Max # of overlaps:      12     101

siesta: E_KS(eV) =            -1023.8625

zmatrix: Atomic forces (eV/Ang ; eV/deg )
zmatrix: (No information if symbols are used)
molecule    1 (    12 atoms)
     1    0.000000    0.000000    0.000000
     2    0.000000    0.000000    0.000000
     3    0.000000    0.000000    0.000000
     4    0.000000    0.000000    0.000000
     5    0.000000    0.000000    0.000000
     6    0.000000    0.000000    0.000000
     7    0.000000    0.000000    0.000000
     8    0.000000    0.000000    0.000000
     9    0.000000    0.000000    0.000000
    10    0.000000    0.000000    0.000000
    11    0.000000    0.000000    0.000000
    12    0.000000    0.000000    0.000000


Variable forces (eV/Ang ; eV/deg )
 xm1          2.1622183421843220     
 zm1          2.2299828703779721E-003
 CCC          8.4131552500866000E-002
 CH         -0.55352341005001493     
 CCH         -1.0549146842104445E-003

siesta: Atomic forces (eV/Ang):
----------------------------------------
   Tot    0.003958    0.004676    0.002230
----------------------------------------
   Max    0.913314
   Res    0.274865    sqrt( Sum f_i^2 / 3N )
----------------------------------------
   Max    0.913314    constrained

Stress-tensor-Voigt (kbar):        4.53        2.63       -0.05        1.51       -0.00       -0.00
(Free)E + p*V (eV/cell)    -1025.0669
Target enthalpy (eV/cell)    -1023.8625

                     ====================================
                        Begin CG opt. move =      6

zmatrix: Z-matrix coordinates: (Ang ; deg )
zmatrix: (Fractional coordinates have been converted to cartesian)
molecule    1 (    12 atoms)
      2.49845765      3.68000000      6.90323569
      1.40477135     90.00000000     60.00000000
      1.40477135    119.72080910     90.00000000
      1.40477135    119.72080910      0.00000000
      1.40477135    119.72080910      0.00000000
      1.40477135    119.72080910      0.00000000
      1.10973536    119.97024824    180.00000000
      1.10973536    119.97024824      0.00000000
      1.10973536    119.97024824      0.00000000
      1.10973536    119.97024824      0.00000000
      1.10973536    119.97024824      0.00000000
      1.10973536    119.97024824      0.00000000


Z-matrix Symbol Section -------
Variables
 xm1          2.4984576486289121     
 zm1          6.9032356936253025     
 CCC          119.72080909642207     
 CH           1.1097353573538613     
 CCH          119.97024823726620     
Constants
 ym1          3.6800000000000002     
 CC           1.4047713513710880     
------------ End of Z-matrix Information

                     ====================================

outcell: Unit cell vectors (Ang):
       11.776283    0.000000    0.000000
        0.000000   11.030875    0.000000
        0.000000    0.000000    6.266317

outcell: Cell vector modules (Ang)   :   11.776283   11.030875    6.266317
outcell: Cell angles (23,13,12) (deg):     90.0000     90.0000     90.0000
outcell: Cell volume (Ang**3)        :    814.0116
<dSpData1D:S at geom step 6
  <sparsity:sparsity for geom step 6
    nrows_g=108 nrows=108 sparsity=.9995 nnzs=11658, refcount: 7>
  <dData1D:(new from dSpData1D) n=11658, refcount: 1>
refcount: 1>
new_DM -- step:     7
Re-using DM from previous geometries...
Number of DMs in history: 1
 DM extrapolation coefficients: 
1   1.00000
New DM after history re-use:
<dSpData2D:SpM extrapolated using coords
  <sparsity:sparsity for geom step 6
    nrows_g=108 nrows=108 sparsity=.9995 nnzs=11658, refcount: 9>
  <dData2D:(temp array for extrapolation) n=11658 m=1, refcount: 1>
refcount: 1>
Note: For starting DM, Qtot, Tr[D*S] =         30.00000000         30.03950066
No. of atoms with KB's overlaping orbs in proc 0. Max # of overlaps:      12     101
New grid distribution:   1
           1       1:   40    1:   40    1:   24

InitMesh: MESH =    80 x    80 x    48 =      307200
InitMesh: (bp) =    40 x    40 x    24 =       38400
InitMesh: Mesh cutoff (required, used) =   120.000   127.546 Ry
ExtMesh (bp) on 0 =    80 x    84 x    68 =      456960
PhiOnMesh: Number of (b)points on node 0 =                38400
PhiOnMesh: nlist on node 0 =               431969

        iscf     Eharris(eV)        E_KS(eV)     FreeEng(eV)     dDmax    Ef(eV) dHmax(eV)
   scf:    1    -1023.656024    -1023.859349    -1023.859349  0.008863 -4.424300  0.133090
   scf:    2    -1023.841716    -1023.854697    -1023.854697  0.006486 -4.470083  0.328314
   scf:    3    -1023.862113    -1023.860531    -1023.860531  0.004636 -4.439383  0.009868
   scf:    4    -1023.860567    -1023.860552    -1023.860552  0.000330 -4.439276  0.004237
   scf:    5    -1023.860558    -1023.860555    -1023.860555  0.000250 -4.438180  0.000664
   scf:    6    -1023.860556    -1023.860556    -1023.860556  0.000026 -4.438124  0.000344

SCF Convergence by DM+H criterion
max |DM_out - DM_in|         :     0.0000258692
max |H_out - H_in|      (eV) :     0.0003435820
SCF cycle converged after 6 iterations

Using DM_out to compute the final energy and forces
No. of atoms with KB's overlaping orbs in proc 0. Max # of overlaps:      12     101

siesta: E_KS(eV) =            -1023.8606

zmatrix: Atomic forces (eV/Ang ; eV/deg )
zmatrix: (No information if symbols are used)
molecule    1 (    12 atoms)
     1    0.000000    0.000000    0.000000
     2    0.000000    0.000000    0.000000
     3    0.000000    0.000000    0.000000
     4    0.000000    0.000000    0.000000
     5    0.000000    0.000000    0.000000
     6    0.000000    0.000000    0.000000
     7    0.000000    0.000000    0.000000
     8    0.000000    0.000000    0.000000
     9    0.000000    0.000000    0.000000
    10    0.000000    0.000000    0.000000
    11    0.000000    0.000000    0.000000
    12    0.000000    0.000000    0.000000


Variable forces (eV/Ang ; eV/deg )
 xm1         0.21032039179311304     
 zm1          1.9026350060998816E-003
 CCC         0.17318864787250621     
 CH         -0.34572118782014238     
 CCH         -1.2120781177938390E-003

siesta: Atomic forces (eV/Ang):
----------------------------------------
   Tot    0.000245    0.009921    0.001903
----------------------------------------
   Max    1.267734
   Res    0.345110    sqrt( Sum f_i^2 / 3N )
----------------------------------------
   Max    1.267734    constrained

Stress-tensor-Voigt (kbar):        1.92       -0.66       -0.05        2.04       -0.00        0.00
(Free)E + p*V (eV/cell)    -1024.0667
Target enthalpy (eV/cell)    -1023.8606

                     ====================================
                        Begin CG opt. move =      7

zmatrix: Z-matrix coordinates: (Ang ; deg )
zmatrix: (Fractional coordinates have been converted to cartesian)
molecule    1 (    12 atoms)
      2.49523760      3.68000000      6.90323404
      1.40799140     90.00000000     60.00000000
      1.40799140    119.76216310     90.00000000
      1.40799140    119.76216310      0.00000000
      1.40799140    119.76216310      0.00000000
      1.40799140    119.76216310      0.00000000
      1.11033593    119.97844262    180.00000000
      1.11033593    119.97844262      0.00000000
      1.11033593    119.97844262      0.00000000
      1.11033593    119.97844262      0.00000000
      1.11033593    119.97844262      0.00000000
      1.11033593    119.97844262      0.00000000


Z-matrix Symbol Section -------
Variables
 xm1          2.4952376034878876     
 zm1          6.9032340447997997     
 CCC          119.76216310319342     
 CH           1.1103359264088530     
 CCH          119.97844262338616     
Constants
 ym1          3.6800000000000002     
 CC           1.4079913965121125     
------------ End of Z-matrix Information

                     ====================================

outcell: Unit cell vectors (Ang):
       11.776283    0.000000    0.000000
        0.000000   11.030875    0.000000
        0.000000    0.000000    6.266317

outcell: Cell vector modules (Ang)   :   11.776283   11.030875    6.266317
outcell: Cell angles (23,13,12) (deg):     90.0000     90.0000     90.0000
outcell: Cell volume (Ang**3)        :    814.0116
<dSpData1D:S at geom step 7
  <sparsity:sparsity for geom step 7
    nrows_g=108 nrows=108 sparsity=.9995 nnzs=11658, refcount: 7>
  <dData1D:(new from dSpData1D) n=11658, refcount: 1>
refcount: 1>
new_DM -- step:     8
Re-using DM from previous geometries...
Number of DMs in history: 1
 DM extrapolation coefficients: 
1   1.00000
New DM after history re-use:
<dSpData2D:SpM extrapolated using coords
  <sparsity:sparsity for geom step 7
    nrows_g=108 nrows=108 sparsity=.9995 nnzs=11658, refcount: 9>
  <dData2D:(temp array for extrapolation) n=11658 m=1, refcount: 1>
refcount: 1>
No. of atoms with KB's overlaping orbs in proc 0. Max # of overlaps:      12     101
New grid distribution:   1
           1       1:   40    1:   40    1:   24

InitMesh: MESH =    80 x    80 x    48 =      307200
InitMesh: (bp) =    40 x    40 x    24 =       38400
InitMesh: Mesh cutoff (required, used) =   120.000   127.546 Ry
ExtMesh (bp) on 0 =    80 x    84 x    68 =      456960
PhiOnMesh: Number of (b)points on node 0 =                38400
PhiOnMesh: nlist on node 0 =               432011

        iscf     Eharris(eV)        E_KS(eV)     FreeEng(eV)     dDmax    Ef(eV) dHmax(eV)
   scf:    1    -1023.987965    -1023.863221    -1023.863221  0.005553 -4.451273  0.081996
   scf:    2    -1023.856444    -1023.861438    -1023.861438  0.004037 -4.423742  0.202979
   scf:    3    -1023.864286    -1023.863680    -1023.863680  0.002894 -4.441799  0.006140
   scf:    4    -1023.863697    -1023.863691    -1023.863691  0.000205 -4.441858  0.002688
   scf:    5    -1023.863693    -1023.863692    -1023.863692  0.000158 -4.442557  0.000419
   scf:    6    -1023.863692    -1023.863692    -1023.863692  0.000017 -4.442591  0.000208

SCF Convergence by DM+H criterion
max |DM_out - DM_in|         :     0.0000165065
max |H_out - H_in|      (eV) :     0.0002084754
SCF cycle converged after 6 iterations

Using DM_out to compute the final energy and forces
No. of atoms with KB's overlaping orbs in proc 0. Max # of overlaps:      12     101

siesta: E_KS(eV) =            -1023.8637

zmatrix: Atomic forces (eV/Ang ; eV/deg )
zmatrix: (No information if symbols are used)
molecule    1 (    12 atoms)
     1    0.000000    0.000000    0.000000
     2    0.000000    0.000000    0.000000
     3    0.000000    0.000000    0.000000
     4    0.000000    0.000000    0.000000
     5    0.000000    0.000000    0.000000
     6    0.000000    0.000000    0.000000
     7    0.000000    0.000000    0.000000
     8    0.000000    0.000000    0.000000
     9    0.000000    0.000000    0.000000
    10    0.000000    0.000000    0.000000
    11    0.000000    0.000000    0.000000
    12    0.000000    0.000000    0.000000


Variable forces (eV/Ang ; eV/deg )
 xm1          1.4291050968056513     
 zm1          2.0403642045412609E-003
 CCC         0.11726661030900416     
 CH         -0.47426511746957239     
 CCH         -1.0987443204710740E-003

siesta: Atomic forces (eV/Ang):
----------------------------------------
   Tot    0.001488    0.008524    0.002040
----------------------------------------
   Max    1.043617
   Res    0.293302    sqrt( Sum f_i^2 / 3N )
----------------------------------------
   Max    1.043617    constrained

Stress-tensor-Voigt (kbar):        3.55        1.39       -0.05        1.71       -0.00       -0.00
(Free)E + p*V (eV/cell)    -1024.6918
Target enthalpy (eV/cell)    -1023.8637

cgvc_zmatrix: Finished line minimization    2.  Mean atomic displacement =    0.0047

                     ====================================
                        Begin CG opt. move =      8

zmatrix: Z-matrix coordinates: (Ang ; deg )
zmatrix: (Fractional coordinates have been converted to cartesian)
molecule    1 (    12 atoms)
      2.50332331      3.68000000      6.90323857
      1.39990569     90.00000000     60.00000000
      1.39990569    120.06601004     90.00000000
      1.39990569    120.06601004      0.00000000
      1.39990569    120.06601004      0.00000000
      1.39990569    120.06601004      0.00000000
      1.10876707    119.95516083    180.00000000
      1.10876707    119.95516083      0.00000000
      1.10876707    119.95516083      0.00000000
      1.10876707    119.95516083      0.00000000
      1.10876707    119.95516083      0.00000000
      1.10876707    119.95516083      0.00000000


Z-matrix Symbol Section -------
Variables
 xm1          2.5033233084467734     
 zm1          6.9032385680501624     
 CCC          120.06601003775678     
 CH           1.1087670748183733     
 CCH          119.95516083029453     
Constants
 ym1          3.6800000000000002     
 CC           1.3999056915532266     
------------ End of Z-matrix Information

                     ====================================

outcell: Unit cell vectors (Ang):
       11.776283    0.000000    0.000000
        0.000000   11.030875    0.000000
        0.000000    0.000000    6.266317

outcell: Cell vector modules (Ang)   :   11.776283   11.030875    6.266317
outcell: Cell angles (23,13,12) (deg):     90.0000     90.0000     90.0000
outcell: Cell volume (Ang**3)        :    814.0116
<dSpData1D:S at geom step 8
  <sparsity:sparsity for geom step 8
    nrows_g=108 nrows=108 sparsity=.9995 nnzs=11658, refcount: 7>
  <dData1D:(new from dSpData1D) n=11658, refcount: 1>
refcount: 1>
new_DM -- step:     9
Re-using DM from previous geometries...
Number of DMs in history: 1
 DM extrapolation coefficients: 
1   1.00000
New DM after history re-use:
<dSpData2D:SpM extrapolated using coords
  <sparsity:sparsity for geom step 8
    nrows_g=108 nrows=108 sparsity=.9995 nnzs=11658, refcount: 9>
  <dData2D:(temp array for extrapolation) n=11658 m=1, refcount: 1>
refcount: 1>
No. of atoms with KB's overlaping orbs in proc 0. Max # of overlaps:      12     101
New grid distribution:   1
           1       1:   40    1:   40    1:   24

InitMesh: MESH =    80 x    80 x    48 =      307200
InitMesh: (bp) =    40 x    40 x    24 =       38400
InitMesh: Mesh cutoff (required, used) =   120.000   127.546 Ry
ExtMesh (bp) on 0 =    80 x    84 x    68 =      456960
PhiOnMesh: Number of (b)points on node 0 =                38400
PhiOnMesh: nlist on node 0 =               431834

        iscf     Eharris(eV)        E_KS(eV)     FreeEng(eV)     dDmax    Ef(eV) dHmax(eV)
   scf:    1    -1023.756799    -1023.861395    -1023.861395  0.016549 -4.443456  0.538974
   scf:    2    -1023.409298    -1023.735842    -1023.735842  0.032727 -4.453785  1.406522
   scf:    3    -1023.921522    -1023.882179    -1023.882179  0.023785 -4.437088  0.012917
   scf:    4    -1023.882239    -1023.882214    -1023.882214  0.000382 -4.436261  0.003838
   scf:    5    -1023.882225    -1023.882220    -1023.882220  0.000302 -4.435852  0.000672
   scf:    6    -1023.882220    -1023.882220    -1023.882220  0.000046 -4.435826  0.000291

SCF Convergence by DM+H criterion
max |DM_out - DM_in|         :     0.0000456400
max |H_out - H_in|      (eV) :     0.0002910891
SCF cycle converged after 6 iterations

Using DM_out to compute the final energy and forces
No. of atoms with KB's overlaping orbs in proc 0. Max # of overlaps:      12     101

siesta: E_KS(eV) =            -1023.8822

zmatrix: Atomic forces (eV/Ang ; eV/deg )
zmatrix: (No information if symbols are used)
molecule    1 (    12 atoms)
     1    0.000000    0.000000    0.000000
     2    0.000000    0.000000    0.000000
     3    0.000000    0.000000    0.000000
     4    0.000000    0.000000    0.000000
     5    0.000000    0.000000    0.000000
     6    0.000000    0.000000    0.000000
     7    0.000000    0.000000    0.000000
     8    0.000000    0.000000    0.000000
     9    0.000000    0.000000    0.000000
    10    0.000000    0.000000    0.000000
    11    0.000000    0.000000    0.000000
    12    0.000000    0.000000    0.000000


Variable forces (eV/Ang ; eV/deg )
 xm1          1.0168888702085739     
 zm1          3.8129456537609910E-003
 CCC         -6.0476628918826797E-002
 CH         -0.15772752842644949     
 CCH          9.2757488094015743E-004

siesta: Atomic forces (eV/Ang):
----------------------------------------
   Tot   -0.005703    0.007209    0.003813
----------------------------------------
   Max    0.360358
   Res    0.093085    sqrt( Sum f_i^2 / 3N )
----------------------------------------
   Max    0.360358    constrained

Stress-tensor-Voigt (kbar):        1.30        1.80       -0.05       -0.49       -0.00        0.00
(Free)E + p*V (eV/cell)    -1024.3989
Target enthalpy (eV/cell)    -1023.8822

                     ====================================
                        Begin CG opt. move =      9

zmatrix: Z-matrix coordinates: (Ang ; deg )
zmatrix: (Fractional coordinates have been converted to cartesian)
molecule    1 (    12 atoms)
      2.50193654      3.68000000      6.90323779
      1.40129246     90.00000000     60.00000000
      1.40129246    120.01389782     90.00000000
      1.40129246    120.01389782      0.00000000
      1.40129246    120.01389782      0.00000000
      1.40129246    120.01389782      0.00000000
      1.10903615    119.95915385    180.00000000
      1.10903615    119.95915385      0.00000000
      1.10903615    119.95915385      0.00000000
      1.10903615    119.95915385      0.00000000
      1.10903615    119.95915385      0.00000000
      1.10903615    119.95915385      0.00000000


Z-matrix Symbol Section -------
Variables
 xm1          2.5019365443034274     
 zm1          6.9032377922759478     
 CCC          120.01389781797378     
 CH           1.1090361456220907     
 CCH          119.95915384710833     
Constants
 ym1          3.6800000000000002     
 CC           1.4012924556965727     
------------ End of Z-matrix Information

                     ====================================

outcell: Unit cell vectors (Ang):
       11.776283    0.000000    0.000000
        0.000000   11.030875    0.000000
        0.000000    0.000000    6.266317

outcell: Cell vector modules (Ang)   :   11.776283   11.030875    6.266317
outcell: Cell angles (23,13,12) (deg):     90.0000     90.0000     90.0000
outcell: Cell volume (Ang**3)        :    814.0116
<dSpData1D:S at geom step 9
  <sparsity:sparsity for geom step 9
    nrows_g=108 nrows=108 sparsity=.9995 nnzs=11658, refcount: 7>
  <dData1D:(new from dSpData1D) n=11658, refcount: 1>
refcount: 1>
new_DM -- step:    10
Re-using DM from previous geometries...
Number of DMs in history: 1
 DM extrapolation coefficients: 
1   1.00000
New DM after history re-use:
<dSpData2D:SpM extrapolated using coords
  <sparsity:sparsity for geom step 9
    nrows_g=108 nrows=108 sparsity=.9995 nnzs=11658, refcount: 9>
  <dData2D:(temp array for extrapolation) n=11658 m=1, refcount: 1>
refcount: 1>
No. of atoms with KB's overlaping orbs in proc 0. Max # of overlaps:      12     101
New grid distribution:   1
           1       1:   40    1:   40    1:   24

InitMesh: MESH =    80 x    80 x    48 =      307200
InitMesh: (bp) =    40 x    40 x    24 =       38400
InitMesh: Mesh cutoff (required, used) =   120.000   127.546 Ry
ExtMesh (bp) on 0 =    80 x    84 x    68 =      456960
PhiOnMesh: Number of (b)points on node 0 =                38400
PhiOnMesh: nlist on node 0 =               431825

        iscf     Eharris(eV)        E_KS(eV)     FreeEng(eV)     dDmax    Ef(eV) dHmax(eV)
   scf:    1    -1023.893533    -1023.882495    -1023.882495  0.002796 -4.435789  0.093695
   scf:    2    -1023.869150    -1023.878793    -1023.878793  0.005619 -4.437576  0.244145
   scf:    3    -1023.884276    -1023.883112    -1023.883112  0.004073 -4.436245  0.002154
   scf:    4    -1023.883114    -1023.883113    -1023.883113  0.000063 -4.436371  0.000668

SCF Convergence by DM+H criterion
max |DM_out - DM_in|         :     0.0000634055
max |H_out - H_in|      (eV) :     0.0006675034
SCF cycle converged after 4 iterations

Using DM_out to compute the final energy and forces
No. of atoms with KB's overlaping orbs in proc 0. Max # of overlaps:      12     101

siesta: E_KS(eV) =            -1023.8831

zmatrix: Atomic forces (eV/Ang ; eV/deg )
zmatrix: (No information if symbols are used)
molecule    1 (    12 atoms)
     1    0.000000    0.000000    0.000000
     2    0.000000    0.000000    0.000000
     3    0.000000    0.000000    0.000000
     4    0.000000    0.000000    0.000000
     5    0.000000    0.000000    0.000000
     6    0.000000    0.000000    0.000000
     7    0.000000    0.000000    0.000000
     8    0.000000    0.000000    0.000000
     9    0.000000    0.000000    0.000000
    10    0.000000    0.000000    0.000000
    11    0.000000    0.000000    0.000000
    12    0.000000    0.000000    0.000000


Variable forces (eV/Ang ; eV/deg )
 xm1          1.1021963357762414     
 zm1          4.5500974297073967E-003
 CCC         -3.1996663591000153E-002
 CH         -0.20853118334324502     
 CCH          5.8481476333671297E-004

siesta: Atomic forces (eV/Ang):
----------------------------------------
   Tot   -0.003884    0.008030    0.004550
----------------------------------------
   Max    0.176740
   Res    0.064121    sqrt( Sum f_i^2 / 3N )
----------------------------------------
   Max    0.176740    constrained

Stress-tensor-Voigt (kbar):        1.68        1.77       -0.05       -0.12       -0.00        0.00
(Free)E + p*V (eV/cell)    -1024.4599
Target enthalpy (eV/cell)    -1023.8831

cgvc_zmatrix: Finished line minimization    3.  Mean atomic displacement =    0.0039

                     ====================================
                        Begin CG opt. move =     10

zmatrix: Z-matrix coordinates: (Ang ; deg )
zmatrix: (Fractional coordinates have been converted to cartesian)
molecule    1 (    12 atoms)
      2.50901410      3.68000000      6.90324440
      1.39421490     90.00000000     60.00000000
      1.39421490    119.99898793     90.00000000
      1.39421490    119.99898793      0.00000000
      1.39421490    119.99898793      0.00000000
      1.39421490    119.99898793      0.00000000
      1.10766649    119.94553810    180.00000000
      1.10766649    119.94553810      0.00000000
      1.10766649    119.94553810      0.00000000
      1.10766649    119.94553810      0.00000000
      1.10766649    119.94553810      0.00000000
      1.10766649    119.94553810      0.00000000


Z-matrix Symbol Section -------
Variables
 xm1          2.5090141011006635     
 zm1          6.9032444040486451     
 CCC          119.99898792924689     
 CH           1.1076664939970735     
 CCH          119.94553809990451     
Constants
 ym1          3.6800000000000002     
 CC           1.3942148988993366     
------------ End of Z-matrix Information

                     ====================================

outcell: Unit cell vectors (Ang):
       11.776283    0.000000    0.000000
        0.000000   11.030875    0.000000
        0.000000    0.000000    6.266317

outcell: Cell vector modules (Ang)   :   11.776283   11.030875    6.266317
outcell: Cell angles (23,13,12) (deg):     90.0000     90.0000     90.0000
outcell: Cell volume (Ang**3)        :    814.0116
<dSpData1D:S at geom step 10
  <sparsity:sparsity for geom step 10
    nrows_g=108 nrows=108 sparsity=.9995 nnzs=11658, refcount: 7>
  <dData1D:(new from dSpData1D) n=11658, refcount: 1>
refcount: 1>
new_DM -- step:    11
Re-using DM from previous geometries...
Number of DMs in history: 1
 DM extrapolation coefficients: 
1   1.00000
New DM after history re-use:
<dSpData2D:SpM extrapolated using coords
  <sparsity:sparsity for geom step 10
    nrows_g=108 nrows=108 sparsity=.9995 nnzs=11658, refcount: 9>
  <dData2D:(temp array for extrapolation) n=11658 m=1, refcount: 1>
refcount: 1>
Note: For starting DM, Qtot, Tr[D*S] =         30.00000000         30.04545081
No. of atoms with KB's overlaping orbs in proc 0. Max # of overlaps:      12     101
New grid distribution:   1
           1       1:   40    1:   40    1:   24

InitMesh: MESH =    80 x    80 x    48 =      307200
InitMesh: (bp) =    40 x    40 x    24 =       38400
InitMesh: Mesh cutoff (required, used) =   120.000   127.546 Ry
ExtMesh (bp) on 0 =    80 x    84 x    68 =      456960
PhiOnMesh: Number of (b)points on node 0 =                38400
PhiOnMesh: nlist on node 0 =               432019

        iscf     Eharris(eV)        E_KS(eV)     FreeEng(eV)     dDmax    Ef(eV) dHmax(eV)
   scf:    1    -1023.652638    -1023.882726    -1023.882726  0.006644 -4.414521  0.056157
   scf:    2    -1023.880264    -1023.882288    -1023.882288  0.001808 -4.456247  0.131897
   scf:    3    -1023.883559    -1023.883254    -1023.883254  0.001249 -4.429194  0.009387
   scf:    4    -1023.883283    -1023.883271    -1023.883271  0.000287 -4.428185  0.003650
   scf:    5    -1023.883279    -1023.883277    -1023.883277  0.000179 -4.427189  0.000673
   scf:    6    -1023.883278    -1023.883277    -1023.883277  0.000044 -4.427123  0.000123

SCF Convergence by DM+H criterion
max |DM_out - DM_in|         :     0.0000435958
max |H_out - H_in|      (eV) :     0.0001234537
SCF cycle converged after 6 iterations

Using DM_out to compute the final energy and forces
No. of atoms with KB's overlaping orbs in proc 0. Max # of overlaps:      12     101

siesta: E_KS(eV) =            -1023.8833

zmatrix: Atomic forces (eV/Ang ; eV/deg )
zmatrix: (No information if symbols are used)
molecule    1 (    12 atoms)
     1    0.000000    0.000000    0.000000
     2    0.000000    0.000000    0.000000
     3    0.000000    0.000000    0.000000
     4    0.000000    0.000000    0.000000
     5    0.000000    0.000000    0.000000
     6    0.000000    0.000000    0.000000
     7    0.000000    0.000000    0.000000
     8    0.000000    0.000000    0.000000
     9    0.000000    0.000000    0.000000
    10    0.000000    0.000000    0.000000
    11    0.000000    0.000000    0.000000
    12    0.000000    0.000000    0.000000


Variable forces (eV/Ang ; eV/deg )
 xm1         -1.0944979855525261     
 zm1          3.0148152071822467E-003
 CCC          2.3575188366436461E-002
 CH           8.4673780594736084E-002
 CCH          5.7851689441298329E-004

siesta: Atomic forces (eV/Ang):
----------------------------------------
   Tot   -0.001163   -0.000812    0.003015
----------------------------------------
   Max    0.173464
   Res    0.069171    sqrt( Sum f_i^2 / 3N )
----------------------------------------
   Max    0.173464    constrained

Stress-tensor-Voigt (kbar):       -1.59       -1.59       -0.05       -0.02       -0.00        0.00
(Free)E + p*V (eV/cell)    -1023.3365
Target enthalpy (eV/cell)    -1023.8833

                     ====================================
                        Begin CG opt. move =     11

zmatrix: Z-matrix coordinates: (Ang ; deg )
zmatrix: (Fractional coordinates have been converted to cartesian)
molecule    1 (    12 atoms)
      2.50554575      3.68000000      6.90324116
      1.39768325     90.00000000     60.00000000
      1.39768325    120.00629451     90.00000000
      1.39768325    120.00629451      0.00000000
      1.39768325    120.00629451      0.00000000
      1.39768325    120.00629451      0.00000000
      1.10833769    119.95221048    180.00000000
      1.10833769    119.95221048      0.00000000
      1.10833769    119.95221048      0.00000000
      1.10833769    119.95221048      0.00000000
      1.10833769    119.95221048      0.00000000
      1.10833769    119.95221048      0.00000000


Z-matrix Symbol Section -------
Variables
 xm1          2.5055457511715895     
 zm1          6.9032411639557676     
[...]
------------ End of Z-matrix Information

                     ====================================

outcell: Unit cell vectors (Ang):
       11.776283    0.000000    0.000000
        0.000000   11.030875    0.000000
        0.000000    0.000000    6.266317

outcell: Cell vector modules (Ang)   :   11.776283   11.030875    6.266317
outcell: Cell angles (23,13,12) (deg):     90.0000     90.0000     90.0000
outcell: Cell volume (Ang**3)        :    814.0116
<dSpData1D:S at geom step 18
  <sparsity:sparsity for geom step 18
    nrows_g=108 nrows=108 sparsity=.9995 nnzs=11658, refcount: 7>
  <dData1D:(new from dSpData1D) n=11658, refcount: 1>
refcount: 1>
new_DM -- step:    19
Re-using DM from previous geometries...
Number of DMs in history: 1
 DM extrapolation coefficients: 
1   1.00000
New DM after history re-use:
<dSpData2D:SpM extrapolated using coords
  <sparsity:sparsity for geom step 18
    nrows_g=108 nrows=108 sparsity=.9995 nnzs=11658, refcount: 9>
  <dData2D:(temp array for extrapolation) n=11658 m=1, refcount: 1>
refcount: 1>
No. of atoms with KB's overlaping orbs in proc 0. Max # of overlaps:      12     101
New grid distribution:   1
           1       1:   40    1:   40    1:   24

InitMesh: MESH =    80 x    80 x    48 =      307200
InitMesh: (bp) =    40 x    40 x    24 =       38400
InitMesh: Mesh cutoff (required, used) =   120.000   127.546 Ry
ExtMesh (bp) on 0 =    80 x    84 x    68 =      456960
PhiOnMesh: Number of (b)points on node 0 =                38400
PhiOnMesh: nlist on node 0 =               431936

        iscf     Eharris(eV)        E_KS(eV)     FreeEng(eV)     dDmax    Ef(eV) dHmax(eV)
   scf:    1    -1023.880686    -1023.885258    -1023.885258  0.001080 -4.428470  0.031727
   scf:    2    -1023.884090    -1023.884933    -1023.884933  0.001656 -4.434510  0.079514
   scf:    3    -1023.885417    -1023.885315    -1023.885315  0.001197 -4.430656  0.000782
   scf:    4    -1023.885315    -1023.885315    -1023.885315  0.000024 -4.430814  0.000245

SCF Convergence by DM+H criterion
max |DM_out - DM_in|         :     0.0000235157
max |H_out - H_in|      (eV) :     0.0002454868
SCF cycle converged after 4 iterations

Using DM_out to compute the final energy and forces
No. of atoms with KB's overlaping orbs in proc 0. Max # of overlaps:      12     101

siesta: E_KS(eV) =            -1023.8853

zmatrix: Atomic forces (eV/Ang ; eV/deg )
zmatrix: (No information if symbols are used)
molecule    1 (    12 atoms)
     1    0.000000    0.000000    0.000000
     2    0.000000    0.000000    0.000000
     3    0.000000    0.000000    0.000000
     4    0.000000    0.000000    0.000000
     5    0.000000    0.000000    0.000000
     6    0.000000    0.000000    0.000000
     7    0.000000    0.000000    0.000000
     8    0.000000    0.000000    0.000000
     9    0.000000    0.000000    0.000000
    10    0.000000    0.000000    0.000000
    11    0.000000    0.000000    0.000000
    12    0.000000    0.000000    0.000000


Variable forces (eV/Ang ; eV/deg )
 xm1         -3.5334013137551690E-002
 zm1          5.0154675389287298E-003
 CCC         -2.2027194781659902E-004
 CH           4.4644318196753229E-003
 CCH          2.1577712006638189E-004

siesta: Atomic forces (eV/Ang):
----------------------------------------
   Tot   -0.000990    0.001239    0.005015
----------------------------------------
   Max    0.009496
   Res    0.003789    sqrt( Sum f_i^2 / 3N )
----------------------------------------
   Max    0.009496    constrained

Stress-tensor-Voigt (kbar):       -0.06       -0.06       -0.05       -0.02       -0.00       -0.00
(Free)E + p*V (eV/cell)    -1023.8564
Target enthalpy (eV/cell)    -1023.8853

cgvc_zmatrix: Finished line minimization    7.  Mean atomic displacement =    0.0000

                     ====================================
                        Begin CG opt. move =     19

zmatrix: Z-matrix coordinates: (Ang ; deg )
zmatrix: (Fractional coordinates have been converted to cartesian)
molecule    1 (    12 atoms)
      2.50550834      3.68000000      6.90327247
      1.39772066     90.00000000     60.00000000
      1.39772066    120.00123266     90.00000000
      1.39772066    120.00123266      0.00000000
      1.39772066    120.00123266      0.00000000
      1.39772066    120.00123266      0.00000000
      1.10799903    119.98763980    180.00000000
      1.10799903    119.98763980      0.00000000
      1.10799903    119.98763980      0.00000000
      1.10799903    119.98763980      0.00000000
      1.10799903    119.98763980      0.00000000
      1.10799903    119.98763980      0.00000000


Z-matrix Symbol Section -------
Variables
 xm1          2.5055083426453977     
 zm1          6.9032724668618828     
 CCC          120.00123265985324     
 CH           1.1079990290418211     
 CCH          119.98763979931452     
Constants
 ym1          3.6800000000000002     
 CC           1.3977206573546024     
------------ End of Z-matrix Information

                     ====================================

outcell: Unit cell vectors (Ang):
       11.776283    0.000000    0.000000
        0.000000   11.030875    0.000000
        0.000000    0.000000    6.266317

outcell: Cell vector modules (Ang)   :   11.776283   11.030875    6.266317
outcell: Cell angles (23,13,12) (deg):     90.0000     90.0000     90.0000
outcell: Cell volume (Ang**3)        :    814.0116
<dSpData1D:S at geom step 19
  <sparsity:sparsity for geom step 19
    nrows_g=108 nrows=108 sparsity=.9995 nnzs=11658, refcount: 7>
  <dData1D:(new from dSpData1D) n=11658, refcount: 1>
refcount: 1>
new_DM -- step:    20
Re-using DM from previous geometries...
Number of DMs in history: 1
 DM extrapolation coefficients: 
1   1.00000
New DM after history re-use:
<dSpData2D:SpM extrapolated using coords
  <sparsity:sparsity for geom step 19
    nrows_g=108 nrows=108 sparsity=.9995 nnzs=11658, refcount: 9>
  <dData2D:(temp array for extrapolation) n=11658 m=1, refcount: 1>
refcount: 1>
No. of atoms with KB's overlaping orbs in proc 0. Max # of overlaps:      12     101
New grid distribution:   1
           1       1:   40    1:   40    1:   24

InitMesh: MESH =    80 x    80 x    48 =      307200
InitMesh: (bp) =    40 x    40 x    24 =       38400
InitMesh: Mesh cutoff (required, used) =   120.000   127.546 Ry
ExtMesh (bp) on 0 =    80 x    84 x    68 =      456960
PhiOnMesh: Number of (b)points on node 0 =                38400
PhiOnMesh: nlist on node 0 =               431953

        iscf     Eharris(eV)        E_KS(eV)     FreeEng(eV)     dDmax    Ef(eV) dHmax(eV)
   scf:    1    -1023.885447    -1023.885313    -1023.885313  0.000044 -4.430941  0.000568

SCF Convergence by DM+H criterion
max |DM_out - DM_in|         :     0.0000441554
max |H_out - H_in|      (eV) :     0.0005676563
SCF cycle converged after 1 iterations

Using DM_out to compute the final energy and forces
No. of atoms with KB's overlaping orbs in proc 0. Max # of overlaps:      12     101

siesta: E_KS(eV) =            -1023.8853

zmatrix: Atomic forces (eV/Ang ; eV/deg )
zmatrix: (No information if symbols are used)
molecule    1 (    12 atoms)
     1    0.000000    0.000000    0.000000
     2    0.000000    0.000000    0.000000
     3    0.000000    0.000000    0.000000
     4    0.000000    0.000000    0.000000
     5    0.000000    0.000000    0.000000
     6    0.000000    0.000000    0.000000
     7    0.000000    0.000000    0.000000
     8    0.000000    0.000000    0.000000
     9    0.000000    0.000000    0.000000
    10    0.000000    0.000000    0.000000
    11    0.000000    0.000000    0.000000
    12    0.000000    0.000000    0.000000


Variable forces (eV/Ang ; eV/deg )
 xm1         -3.3487609500003984E-002
 zm1          5.0261836238504106E-003
 CCC         -8.0098165399594511E-005
 CH           8.4826950392123176E-003
 CCH          1.6412887314657017E-004

siesta: Atomic forces (eV/Ang):
----------------------------------------
   Tot   -0.000878    0.001316    0.005026
----------------------------------------
   Max    0.008179
   Res    0.003500    sqrt( Sum f_i^2 / 3N )
----------------------------------------
   Max    0.008179    constrained

Stress-tensor-Voigt (kbar):       -0.06       -0.06       -0.05       -0.02       -0.00       -0.00
(Free)E + p*V (eV/cell)    -1023.8558
Target enthalpy (eV/cell)    -1023.8853

                     ====================================
                        Begin CG opt. move =     20

zmatrix: Z-matrix coordinates: (Ang ; deg )
zmatrix: (Fractional coordinates have been converted to cartesian)
molecule    1 (    12 atoms)
      2.50547664      3.68000000      6.90328199
      1.39775236     90.00000000     60.00000000
      1.39775236    120.00094563     90.00000000
      1.39775236    120.00094563      0.00000000
      1.39775236    120.00094563      0.00000000
      1.39775236    120.00094563      0.00000000
      1.10796311    119.99456373    180.00000000
      1.10796311    119.99456373      0.00000000
      1.10796311    119.99456373      0.00000000
      1.10796311    119.99456373      0.00000000
      1.10796311    119.99456373      0.00000000
      1.10796311    119.99456373      0.00000000


Z-matrix Symbol Section -------
Variables
 xm1          2.5054766434258204     
 zm1          6.9032819903851399     
 CCC          120.00094563277493     
 CH           1.1079631095032871     
 CCH          119.99456372633466     
Constants
 ym1          3.6800000000000002     
 CC           1.3977523565741798     
------------ End of Z-matrix Information

                     ====================================

outcell: Unit cell vectors (Ang):
       11.776283    0.000000    0.000000
        0.000000   11.030875    0.000000
        0.000000    0.000000    6.266317

outcell: Cell vector modules (Ang)   :   11.776283   11.030875    6.266317
outcell: Cell angles (23,13,12) (deg):     90.0000     90.0000     90.0000
outcell: Cell volume (Ang**3)        :    814.0116
<dSpData1D:S at geom step 20
  <sparsity:sparsity for geom step 20
    nrows_g=108 nrows=108 sparsity=.9995 nnzs=11658, refcount: 7>
  <dData1D:(new from dSpData1D) n=11658, refcount: 1>
refcount: 1>
new_DM -- step:    21
Re-using DM from previous geometries...
Number of DMs in history: 1
 DM extrapolation coefficients: 
1   1.00000
New DM after history re-use:
<dSpData2D:SpM extrapolated using coords
  <sparsity:sparsity for geom step 20
    nrows_g=108 nrows=108 sparsity=.9995 nnzs=11658, refcount: 9>
  <dData2D:(temp array for extrapolation) n=11658 m=1, refcount: 1>
refcount: 1>
No. of atoms with KB's overlaping orbs in proc 0. Max # of overlaps:      12     101
New grid distribution:   1
           1       1:   40    1:   40    1:   24

InitMesh: MESH =    80 x    80 x    48 =      307200
InitMesh: (bp) =    40 x    40 x    24 =       38400
InitMesh: Mesh cutoff (required, used) =   120.000   127.546 Ry
ExtMesh (bp) on 0 =    80 x    84 x    68 =      456960
PhiOnMesh: Number of (b)points on node 0 =                38400
PhiOnMesh: nlist on node 0 =               431958

        iscf     Eharris(eV)        E_KS(eV)     FreeEng(eV)     dDmax    Ef(eV) dHmax(eV)
   scf:    1    -1023.885528    -1023.885315    -1023.885315  0.000060 -4.430740  0.000501

SCF Convergence by DM+H criterion
max |DM_out - DM_in|         :     0.0000599221
max |H_out - H_in|      (eV) :     0.0005014456
SCF cycle converged after 1 iterations

Using DM_out to compute the final energy and forces
No. of atoms with KB's overlaping orbs in proc 0. Max # of overlaps:      12     101

siesta: E_KS(eV) =            -1023.8853

zmatrix: Atomic forces (eV/Ang ; eV/deg )
zmatrix: (No information if symbols are used)
molecule    1 (    12 atoms)
     1    0.000000    0.000000    0.000000
     2    0.000000    0.000000    0.000000
     3    0.000000    0.000000    0.000000
     4    0.000000    0.000000    0.000000
     5    0.000000    0.000000    0.000000
     6    0.000000    0.000000    0.000000
     7    0.000000    0.000000    0.000000
     8    0.000000    0.000000    0.000000
     9    0.000000    0.000000    0.000000
    10    0.000000    0.000000    0.000000
    11    0.000000    0.000000    0.000000
    12    0.000000    0.000000    0.000000


Variable forces (eV/Ang ; eV/deg )
 xm1         -2.4076193992332587E-002
 zm1          5.0346960134433271E-003
 CCC          1.5602981897239369E-005
 CH           1.5657220469683601E-002
 CCH          8.6330976658513457E-005

siesta: Atomic forces (eV/Ang):
----------------------------------------
   Tot   -0.000735    0.001027    0.005035
----------------------------------------
   Max    0.007444
   Res    0.003138    sqrt( Sum f_i^2 / 3N )
----------------------------------------
   Max    0.007444    constrained

Stress-tensor-Voigt (kbar):       -0.06       -0.06       -0.05       -0.01       -0.00       -0.00
(Free)E + p*V (eV/cell)    -1023.8573
Target enthalpy (eV/cell)    -1023.8853

outcoor: Relaxed atomic coordinates (Ang):                  
    2.50547664    3.68000000    6.90328199   2       1  C
    3.20435282    4.89048905    6.90328199   2       2  C
    4.60210518    4.89051212    6.90328199   2       3  C
    5.30102131    3.68004614    6.90328199   2       4  C
    4.60220507    2.46952249    6.90328199   2       5  C
    3.20445272    2.46943021    6.90328199   2       6  C
    1.39751354    3.68010512    6.90328199   1       7  H
    2.65028023    5.84996068    6.90328199   1       8  H
    5.15597985    5.85009802    6.90328199   1       9  H
    6.40898441    3.68018784    6.90328199   1      10  H
    5.15632517    1.51007829    6.90328199   1      11  H
    2.65062556    1.50981689    6.90328199   1      12  H

zmatrix: Z-matrix coordinates: (Ang ; deg )
zmatrix: (Fractional coordinates have been converted to cartesian)
molecule    1 (    12 atoms)
      2.50547664      3.68000000      6.90328199
      1.39775236     90.00000000     60.00000000
      1.39775236    120.00094563     90.00000000
      1.39775236    120.00094563      0.00000000
      1.39775236    120.00094563      0.00000000
      1.39775236    120.00094563      0.00000000
      1.10796311    119.99456373    180.00000000
      1.10796311    119.99456373      0.00000000
      1.10796311    119.99456373      0.00000000
      1.10796311    119.99456373      0.00000000
      1.10796311    119.99456373      0.00000000
      1.10796311    119.99456373      0.00000000


Z-matrix Symbol Section -------
Variables
 xm1          2.5054766434258204     
 zm1          6.9032819903851399     
 CCC          120.00094563277493     
 CH           1.1079631095032871     
 CCH          119.99456372633466     
Constants
 ym1          3.6800000000000002     
 CC           1.3977523565741798     
------------ End of Z-matrix Information


siesta: Program's energy decomposition (eV):
siesta: Ebs     =      -359.839175
siesta: Eions   =      1613.953835
siesta: Ena     =       339.938948
siesta: Ekin    =       736.385846
siesta: Enl     =      -120.382693
siesta: Eso     =         0.000000
siesta: Eldau   =         0.000000
siesta: DEna    =       -35.431303
siesta: DUscf   =         3.915238
siesta: DUext   =         0.000000
siesta: Enegf   =         0.000000
siesta: Exc     =      -334.357516
siesta: eta*DQ  =         0.000000
siesta: Emadel  =         0.000000
siesta: Emeta   =         0.000000
siesta: Emolmec =         0.000000
siesta: Ekinion =         0.000000
siesta: Eharris =     -1023.885528
siesta: Etot    =     -1023.885315
siesta: FreeEng =     -1023.885315

siesta: Final energy (eV):
siesta:  Band Struct. =    -359.839175
siesta:       Kinetic =     736.385846
siesta:       Hartree =    1861.818119
siesta:       Eldau   =       0.000000
siesta:       Eso     =       0.000000
siesta:    Ext. field =       0.000000
siesta:       Enegf   =       0.000000
siesta:   Exch.-corr. =    -334.357516
siesta:  Ion-electron =   -4382.832319
siesta:       Ion-ion =    1095.100555
siesta:       Ekinion =       0.000000
siesta:         Total =   -1023.885315
siesta:         Fermi =      -4.430740

siesta: Stress tensor (static) (eV/Ang**3):
siesta:    -0.000035   -0.000007   -0.000001
siesta:    -0.000007   -0.000037   -0.000000
siesta:    -0.000001   -0.000000   -0.000031

siesta: Cell volume =        814.011582 Ang**3

siesta: Pressure (static):
siesta:                Solid            Molecule  Units
siesta:           0.00000037          0.00000015  Ry/Bohr**3
siesta:           0.00003436          0.00001348  eV/Ang**3
siesta:           0.05505900          0.02159830  kBar
(Free)E+ p_basis*V_orbitals  =       -1019.882121
(Free)Eharris+ p_basis*V_orbitals  =       -1019.882334

siesta: Electric dipole (a.u.)  =    0.000082   -0.000012   -0.000111
siesta: Electric dipole (Debye) =    0.000208   -0.000031   -0.000283

timer: Elapsed wall time (sec) =      78.714
timer: CPU execution times (sec):

Routine            Calls   Time/call    Tot.time        %
siesta                 1      78.714      78.714   100.00
Setup                  1       0.197       0.197     0.25
bands                  1       0.000       0.000     0.00
KSV_init               1       0.000       0.000     0.00
IterGeom              21       3.739      78.514    99.75
state_init            21       0.037       0.778     0.99
hsparse               21       0.004       0.074     0.09
overlap               21       0.025       0.522     0.66
Setup_H0              21       0.811      17.028    21.63
naefs                 42       0.000       0.008     0.01
MolMec                42       0.000       0.000     0.00
kinefsm               42       0.016       0.689     0.88
nlefsm                42       0.065       2.711     3.44
DHSCF_Init            21       0.704      14.778    18.77
DHSCF1                21       0.017       0.357     0.45
INITMESH              21       0.000       0.000     0.00
DHSCF2                21       0.687      14.422    18.32
REMESH                21       0.033       0.700     0.89
REORD                486       0.001       0.545     0.69
PHION                 21       0.534      11.211    14.24
COMM_BSC             381       0.001       0.451     0.57
POISON               180       0.044       7.888    10.02
fft                  360       0.017       5.982     7.60
IterSCF              117       0.309      36.116    45.88
setup_H              138       0.242      33.416    42.45
DHSCF                159       0.352      55.988    71.13
DHSCF3               159       0.241      38.270    48.62
rhoofd               159       0.072      11.523    14.64
CellXC               159       0.040       6.387     8.11
cellXC               159       0.040       6.384     8.11
vmat                 159       0.062       9.882    12.55
compute_dm           117       0.012       1.448     1.84
diagon               117       0.010       1.177     1.50
r-eigvec             117       0.006       0.721     0.92
r-buildHS            117       0.001       0.098     0.12
rdiag                117       0.005       0.622     0.79
rdiag1               117       0.000       0.030     0.04
rdiag2               117       0.001       0.071     0.09
rdiag3               117       0.004       0.430     0.55
rdiag4               117       0.001       0.081     0.10
r-buildD             117       0.002       0.232     0.29
MIXER                 96       0.009       0.842     1.07
PostSCF               21       1.168      24.523    31.15
DHSCF4                21       0.844      17.718    22.51
dfscf                 21       0.748      15.704    19.95
overfsm               21       0.007       0.152     0.19
state_analysis        21       0.001       0.012     0.01
siesta_move           21       0.002       0.041     0.05
Analysis               1       0.002       0.002     0.00
siesta_analysis        1       0.002       0.002     0.00
optical                1       0.000       0.000     0.00
  
>> End of run:  14-AUG-2019  13:21:05
Job completed
