Siesta Version  : v4.1-b4
Architecture    : unknown
Compiler version: GNU Fortran (SUSE Linux) 5.4.1 20160914 [gcc-5-branch revision 240129]
Compiler flags  : gfortran -O3 -fexpensive-optimizations -ftree-vectorize -fprefetch-loop-arrayys -march=native -fPIC -fopenmp -fopenmp
PP flags        : -DFC_HAVE_ABORT -DSIESTA__DIAG_2STAGE -DSIESTA__MRRR
Libraries       : libsiestaLAPACK.a libsiestaBLAS.a  -fopenmp
SERIAL version

* Running in serial mode
* Running 4 OpenMP threads.
* Running 4 processes.
* OpenMP version 201307
* OpenMP NOT bound (please bind threads!)
* OpenMP runtime schedule DYNAMIC, chunks 1
** OpenMP runtime schedule DYNAMIC, chunks 16
>> Start of run:  14-AUG-2019  11:15:31

                           ***********************       
                           *  WELCOME TO SIESTA  *       
                           ***********************       

reinit: Reading from standard input
reinit: Dumped input in INPUT_TMP.10248
************************** Dump of input data file ****************************
SystemName methane fcc  With vdW. Pre-packaged molecules
SystemLabel ch4
NumberOfSpecies 2
NumberOfAtoms   5
%block ChemicalSpeciesLabel
1    6 C.pbe
2    1 H.pbe
%endblock ChemicalSpeciesLabel
%block PS.lmax
   C.pbe 2
%endblock PS.lmax
PAO.BasisSize   DZP
kgrid_cutoff    10.0 Ang
MeshCutoff      200 Ry
PAO.EnergyShift 0.001 Ry
# DFT, Grid, SCF
XC.functional           GGA
XC.authors              PBE
DM.MixingWeight         0.150
DM.Tolerance            1.d-4
DM.NumberPulay          5      # Number of SCF steps between pulay mixing
# Relaxation, smearing, etc.
ElectronicTemperature   500 K
#
# Zmatrix for methane in fcc structure
#
LatticeConstant 5.96 Ang
%block LatticeVectors
          0.5    0.5   0.0
          0.5    0.0   0.5
          0.0    0.5   0.5
%endblock LatticeVectors
ZM.UnitsLength Ang
ZM.UnitsAngle rad
#
# Zmatrix block: Only the orientation of the molecule
# is allowed to vary (three angles). In particular,
# the CH bond-length is fixed to a value lower than
# the theoretically optimal, so there is an intramolecular
# contribution to the stress which is deactivated below
#
%block Zmatrix
molecule_fractional
 1   0   0   0      0.0             0.0     0.0          0   0   0
 2   1   0   0      CH      0.7             1.5          0   1   1
 2   1   2   0      CH      1.91063300      2.09439500   0   0   1
 2   1   2   3      CH      1.91063300      2.09439500   0   0   0
 2   1   2   4      CH      1.91063300      2.09439500   0   0   0
constants
CH 1.060015
%endblock Zmatrix
MD.TypeOfRun            Broyden     # Type of dynamics
MD.VariableCell         T
MD.RemoveIntraMolecularPressure T
MD.NumCGsteps           30
%block MM.Potentials
1 1 C6 25.065 2.0
2 2 C6  1.130 2.0
1 2 C6  4.900 2.0
%endblock MM.Potentials
************************** End of input data file *****************************

reinit: -----------------------------------------------------------------------
reinit: System Name: methane fcc  With vdW. Pre-packaged molecules
reinit: -----------------------------------------------------------------------
reinit: System Label: ch4
reinit: -----------------------------------------------------------------------
Reading two-body potentials
C6 - two-body potential between 1 and 1
C6 - two-body potential between 2 and 2
C6 - two-body potential between 1 and 2

initatom: Reading input for the pseudopotentials and atomic orbitals ----------
Species number:   1 Atomic number:    6 Label: C.pbe
Species number:   2 Atomic number:    1 Label: H.pbe

Ground state valence configuration:   2s02  2p02
Reading pseudopotential information in formatted form from C.pbe.psf

Valence configuration for pseudopotential generation:
2s( 2.00) rc: 1.49
2p( 2.00) rc: 1.52
3d( 0.00) rc: 1.52
Ground state valence configuration:   1s01
Reading pseudopotential information in formatted form from H.pbe.psf

Valence configuration for pseudopotential generation:
1s( 1.00) rc: 1.43
2p( 0.00) rc: 1.25
3d( 0.00) rc: 1.25
4f( 0.00) rc: 1.25
relmxkb: Read Max KB Ang. Momentum=    2 for species C.pbe
For H.pbe, standard SIESTA heuristics set lmxkb to 2
 (one more than the basis l, including polarization orbitals).
Use PS.lmax or PS.KBprojectors blocks to override.

<basis_specs>
===============================================================================
C.pbe                Z=   6    Mass=  12.010        Charge= 0.17977+309
Lmxo=1 Lmxkb= 2    BasisType=split      Semic=F
L=0  Nsemic=0  Cnfigmx=2
          n=1  nzeta=2  polorb=0
            splnorm:   0.15000    
               vcte:    0.0000    
               rinn:    0.0000    
               qcoe:    0.0000    
               qyuk:    0.0000    
               qwid:   0.10000E-01
                rcs:    0.0000      0.0000    
            lambdas:    1.0000      1.0000    
L=1  Nsemic=0  Cnfigmx=2
          n=1  nzeta=2  polorb=1
            splnorm:   0.15000    
               vcte:    0.0000    
               rinn:    0.0000    
               qcoe:    0.0000    
               qyuk:    0.0000    
               qwid:   0.10000E-01
                rcs:    0.0000      0.0000    
            lambdas:    1.0000      1.0000    
-------------------------------------------------------------------------------
L=0  Nkbl=1  erefs: 0.17977+309
L=1  Nkbl=1  erefs: 0.17977+309
L=2  Nkbl=1  erefs: 0.17977+309
===============================================================================
</basis_specs>

atom: Called for C.pbe                 (Z =   6)

read_vps: Pseudopotential generation method:
read_vps: ATM 3.2.2 Troullier-Martins                       
Total valence charge:    4.00000

read_vps: Pseudopotential includes a core correction:
read_vps: Pseudo-core for xc-correction

xc_check: Exchange-correlation functional:
xc_check: GGA Perdew, Burke & Ernzerhof 1996
V l=0 = -2*Zval/r beyond r=  1.4666
V l=1 = -2*Zval/r beyond r=  1.5038
V l=2 = -2*Zval/r beyond r=  1.5038
All V_l potentials equal beyond r=  1.5038
This should be close to max(r_c) in ps generation
All pots = -2*Zval/r beyond r=  1.5038

VLOCAL1: 99.0% of the norm of Vloc inside     19.196 Ry
VLOCAL1: 99.9% of the norm of Vloc inside     43.748 Ry
atom: Maximum radius for 4*pi*r*r*local-pseudopot. charge    1.81396
atom: Maximum radius for r*vlocal+2*Zval:    1.56123
GHOST: No ghost state for L =  0
GHOST: No ghost state for L =  1
GHOST: No ghost state for L =  2

KBgen: Kleinman-Bylander projectors: 
   l= 0   rc=  1.682861   el= -1.009802   Ekb=  5.530688   kbcos=  0.309203
   l= 1   rc=  1.682861   el= -0.388707   Ekb= -3.901042   kbcos= -0.358653
   l= 2   rc=  1.769164   el=  0.001971   Ekb= -0.965319   kbcos= -0.008918

KBgen: Total number of  Kleinman-Bylander projectors:    9
atom: -------------------------------------------------------------------------

atom: SANKEY-TYPE ORBITALS:
atom: Selected multiple-zeta basis: split     

SPLIT: Orbitals with angular momentum L= 0

SPLIT: Basis orbitals for state 2s

SPLIT: PAO cut-off radius determined from an
SPLIT: energy shift=  0.001000 Ry

   izeta = 1
                 lambda =    1.000000
                     rc =    5.801806
                 energy =   -1.009004
                kinetic =    0.829165
    potential(screened) =   -1.838170
       potential(ionic) =   -5.378487

   izeta = 2
                 rmatch =    3.518811
              splitnorm =    0.150000
                 energy =   -0.885169
                kinetic =    1.273297
    potential(screened) =   -2.158466
       potential(ionic) =   -5.945214

SPLIT: Orbitals with angular momentum L= 1

SPLIT: Basis orbitals for state 2p

SPLIT: PAO cut-off radius determined from an
SPLIT: energy shift=  0.001000 Ry

   izeta = 1
                 lambda =    1.000000
                     rc =    7.449784
                 energy =   -0.387885
                kinetic =    2.312128
    potential(screened) =   -2.700012
       potential(ionic) =   -6.078394

   izeta = 2
                 rmatch =    3.792903
              splitnorm =    0.150000
                 energy =   -0.276938
                kinetic =    3.389980
    potential(screened) =   -3.666918
       potential(ionic) =   -7.425500

POLgen: Perturbative polarization orbital with L=  2

POLgen: Polarization orbital for state 2p

   izeta = 1
                     rc =    7.449784
                 energy =    0.930146
                kinetic =    1.972968
    potential(screened) =   -1.042822
       potential(ionic) =   -3.697087
atom: Total number of Sankey-type orbitals: 13

atm_pop: Valence configuration (for local Pseudopot. screening):
 2s( 2.00)                                                            
 2p( 2.00)                                                            
Vna: chval, zval:    4.00000   4.00000

Vna:  Cut-off radius for the neutral-atom potential:   7.449784
comcore: Pseudo-core radius Rcore=  1.791422

atom: _________________________________________________________________________

<basis_specs>
===============================================================================
H.pbe                Z=   1    Mass=  1.0100        Charge= 0.17977+309
Lmxo=0 Lmxkb= 2    BasisType=split      Semic=F
L=0  Nsemic=0  Cnfigmx=1
          n=1  nzeta=2  polorb=1
            splnorm:   0.15000    
               vcte:    0.0000    
               rinn:    0.0000    
               qcoe:    0.0000    
               qyuk:    0.0000    
               qwid:   0.10000E-01
                rcs:    0.0000      0.0000    
            lambdas:    1.0000      1.0000    
-------------------------------------------------------------------------------
L=0  Nkbl=1  erefs: 0.17977+309
L=1  Nkbl=1  erefs: 0.17977+309
L=2  Nkbl=1  erefs: 0.17977+309
===============================================================================
</basis_specs>

atom: Called for H.pbe                 (Z =   1)

read_vps: Pseudopotential generation method:
read_vps: ATM 3.2.2 Troullier-Martins                       
Total valence charge:    1.00000

xc_check: Exchange-correlation functional:
xc_check: GGA Perdew, Burke & Ernzerhof 1996
V l=0 = -2*Zval/r beyond r=  1.4166
V l=1 = -2*Zval/r beyond r=  1.3816
V l=2 = -2*Zval/r beyond r=  1.3816
All V_l potentials equal beyond r=  1.4166
This should be close to max(r_c) in ps generation
All pots = -2*Zval/r beyond r=  1.4166

VLOCAL1: 99.0% of the norm of Vloc inside     21.631 Ry
VLOCAL1: 99.9% of the norm of Vloc inside     49.298 Ry
atom: Maximum radius for 4*pi*r*r*local-pseudopot. charge    1.66698
atom: Maximum radius for r*vlocal+2*Zval:    1.39896
GHOST: No ghost state for L =  0
GHOST: No ghost state for L =  1
GHOST: No ghost state for L =  2

KBgen: Kleinman-Bylander projectors: 
   l= 0   rc=  1.565833   el= -0.477200   Ekb= -1.851072   kbcos= -0.391986
   l= 1   rc=  1.646243   el=  0.001076   Ekb= -0.560969   kbcos= -0.025747
   l= 2   rc=  1.687980   el=  0.002010   Ekb= -0.184546   kbcos= -0.003662

KBgen: Total number of  Kleinman-Bylander projectors:    9
atom: -------------------------------------------------------------------------

atom: SANKEY-TYPE ORBITALS:
atom: Selected multiple-zeta basis: split     

SPLIT: Orbitals with angular momentum L= 0

SPLIT: Basis orbitals for state 1s

SPLIT: PAO cut-off radius determined from an
SPLIT: energy shift=  0.001000 Ry

   izeta = 1
                 lambda =    1.000000
                     rc =    7.026209
                 energy =   -0.476249
                kinetic =    0.864355
    potential(screened) =   -1.340604
       potential(ionic) =   -1.858348

   izeta = 2
                 rmatch =    4.103729
              splitnorm =    0.150000
                 energy =   -0.388115
                kinetic =    1.394286
    potential(screened) =   -1.782401
       potential(ionic) =   -2.328147

POLgen: Perturbative polarization orbital with L=  1

POLgen: Polarization orbital for state 1s

   izeta = 1
                     rc =    7.026209
                 energy =    0.513965
                kinetic =    1.105770
    potential(screened) =   -0.591806
       potential(ionic) =   -1.053548
atom: Total number of Sankey-type orbitals:  5

atm_pop: Valence configuration (for local Pseudopot. screening):
 1s( 1.00)                                                            
Vna: chval, zval:    1.00000   1.00000

Vna:  Cut-off radius for the neutral-atom potential:   7.026209

atom: _________________________________________________________________________

prinput: Basis input ----------------------------------------------------------

PAO.BasisType split     

%block ChemicalSpeciesLabel
    1    6 C.pbe                   # Species index, atomic number, species label
    2    1 H.pbe                   # Species index, atomic number, species label
%endblock ChemicalSpeciesLabel

%block PAO.Basis                 # Define Basis set
C.pbe                 2                    # Species label, number of l-shells
 n=2   0   2                         # n, l, Nzeta 
   5.802      3.519   
   1.000      1.000   
 n=2   1   2 P   1                   # n, l, Nzeta, Polarization, NzetaPol
   7.450      3.793   
   1.000      1.000   
H.pbe                 1                    # Species label, number of l-shells
 n=1   0   2 P   1                   # n, l, Nzeta, Polarization, NzetaPol
   7.026      4.104   
   1.000      1.000   
%endblock PAO.Basis

prinput: ----------------------------------------------------------------------

coor:   Atomic-coordinates input format  =     Cartesian coordinates
coor:                                            (in Bohr units)
read_Zmatrix: Length units: Ang       
read_Zmatrix: Angle  units: rad       
read_Zmatrix: Force tolerances:
read_Zmatrix:    for lengths =     0.001556 Ry/Bohr
read_Zmatrix:    for angles  =     0.003565 Ry/rad

read_Zmatrix: Maximum displacements:
read_Zmatrix:    for lengths =     0.200000 Bohr
read_Zmatrix:    for angles  =     0.003000 rad
%block Zmatrix
molecule_fractional
 1   0   0   0      0.0             0.0     0.0          0   0   0
 2   1   0   0      CH      0.7             1.5          0   1   1
 2   1   2   0      CH      1.91063300      2.09439500   0   0   1
 2   1   2   3      CH      1.91063300      2.09439500   0   0   0
 2   1   2   4      CH      1.91063300      2.09439500   0   0   0
constants
CH 1.060015
%endblock Zmatrix
 nZmol:            1
 nSpecies:            1           2           2           2           2

zmatrix: Z-matrix coordinates: (Ang ; rad )
zmatrix: (Fractional coordinates have been converted to cartesian)
molecule    1 (     5 atoms)
      0.00000000      0.00000000      0.00000000
      1.06001500      0.70000000      1.50000000
      1.06001500      1.91063300      2.09439500
      1.06001500      1.91063300      2.09439500
      1.06001500      1.91063300      2.09439500


Z-matrix Symbol Section -------
Variables
Constants
 CH           1.0600149999999999     
------------ End of Z-matrix Information


siesta: Atomic coordinates (Bohr) and species
siesta:      0.00000   0.00000   0.00000  1        1
siesta:      0.09128   1.28722   1.53209  2        2
siesta:     -1.61080   0.40704  -1.11902  2        3
siesta:      1.65212   0.17565  -1.11902  2        4
siesta:     -0.13260  -1.86992   0.70596  2        5

siesta: System type = bulk      

initatomlists: Number of atoms, orbitals, and projectors:      5    33    45

siesta: ******************** Simulation parameters ****************************
siesta:
siesta: The following are some of the parameters of the simulation.
siesta: A complete list of the parameters used, including default values,
siesta: can be found in file out.fdf
siesta:
redata: Spin configuration                          = none
redata: Number of spin components                   = 1
redata: Time-Reversal Symmetry                      = T
redata: Spin-spiral                                 = F
redata: Long output                                 =   F
redata: Number of Atomic Species                    =        2
redata: Charge density info will appear in .RHO file
redata: Write Mulliken Pop.                         = NO
redata: Matel table size (NRTAB)                    =     1024
redata: Mesh Cutoff                                 =   200.0000 Ry
redata: Net charge of the system                    =     0.0000 |e|
redata: Min. number of SCF Iter                     =        0
redata: Max. number of SCF Iter                     =     1000
redata: SCF convergence failure will abort job
redata: SCF mix quantity                            = Hamiltonian
redata: Mix DM or H after convergence               =   F
redata: Recompute H after scf cycle                 =   F
redata: Mix DM in first SCF step                    =   T
redata: Write Pulay info on disk                    =   F
redata: New DM Mixing Weight                        =     0.1500
redata: New DM Occupancy tolerance                  = 0.000000000001
redata: No kicks to SCF
redata: DM Mixing Weight for Kicks                  =     0.5000
redata: Require Harris convergence for SCF          =   F
redata: Harris energy tolerance for SCF             =     0.000100 eV
redata: Require DM convergence for SCF              =   T
redata: DM tolerance for SCF                        =     0.000100
redata: Require EDM convergence for SCF             =   F
redata: EDM tolerance for SCF                       =     0.001000 eV
redata: Require H convergence for SCF               =   T
redata: Hamiltonian tolerance for SCF               =     0.001000 eV
redata: Require (free) Energy convergence for SCF   =   F
redata: (free) Energy tolerance for SCF             =     0.000100 eV
redata: Using Saved Data (generic)                  =   F
redata: Use continuation files for DM               =   F
redata: Neglect nonoverlap interactions             =   F
redata: Method of Calculation                       = Diagonalization
redata: Electronic Temperature                      =   499.9963 K
redata: Fix the spin of the system                  =   F
redata: Dynamics option                             = Broyden coord. optimization
redata: Variable cell                               =   T
redata: Maximum number of CG moves                  =       30
redata: Force tolerance                             =     0.0400 eV/Ang
redata: Stress tolerance                            =     1.0000 GPa
mix.SCF: Pulay mixing                            = Pulay
mix.SCF:    Variant                              = stable
mix.SCF:    History steps                        = 5
mix.SCF:    Linear mixing weight                 =     0.150000
mix.SCF:    Mixing weight                        =     0.150000
mix.SCF:    SVD condition                        = 0.1000E-07
redata: ***********************************************************************

%block SCF.Mixers
  Pulay
%endblock SCF.Mixers

%block SCF.Mixer.Pulay
  # Mixing method
  method pulay
  variant stable

  # Mixing options
  weight 0.1500
  weight.linear 0.1500
  history 5
%endblock SCF.Mixer.Pulay

DM_history_depth set to one: no extrapolation allowed by default for geometry relaxation
Size of DM history Fstack: 1
Total number of electrons:     8.000000
Total ionic charge:     8.000000
 Kpoints in:           75 . Kpoints trimmed:           63

siesta: k-grid: Number of k-points =    63
siesta: k-grid: Cutoff (effective) =    10.536 Ang
siesta: k-grid: Supercell and displacements
siesta: k-grid:    0   5   0      0.000
siesta: k-grid:    0   0   5      0.000
siesta: k-grid:    5   0   0      0.000

diag: Algorithm                                     = D&C
diag: Used triangular part                          = Lower
diag: Absolute tolerance                            =  0.100E-15
diag: Orthogonalization factor                      =  0.100E-05
diag: Memory factor                                 =  1.0000

superc: Internal auxiliary supercell:     5 x     5 x     5  =     125
superc: Number of atoms, orbitals, and projectors:    625   4125   5625


ts: **************************************************************
ts: Save H and S matrices                           =    F
ts: Save DM and EDM matrices                        =    F
ts: Fix Hartree potential                           =    F
ts: Only save the overlap matrix S                  =    F
ts: **************************************************************

************************ Begin: TS CHECKS AND WARNINGS ************************
************************ End: TS CHECKS AND WARNINGS **************************


                     ====================================
                        Begin Broyden opt. move =      0

zmatrix: Z-matrix coordinates: (Ang ; rad )
zmatrix: (Fractional coordinates have been converted to cartesian)
molecule    1 (     5 atoms)
      0.00000000      0.00000000      0.00000000
      1.06001500      0.70000000      1.50000000
      1.06001500      1.91063300      2.09439500
      1.06001500      1.91063300      2.09439500
      1.06001500      1.91063300      2.09439500


Z-matrix Symbol Section -------
Variables
Constants
 CH           1.0600149999999999     
------------ End of Z-matrix Information

                     ====================================

superc: Internal auxiliary supercell:     5 x     5 x     5  =     125
superc: Number of atoms, orbitals, and projectors:    625   4125   5625

outcell: Unit cell vectors (Ang):
        2.980000    2.980000    0.000000
        2.980000    0.000000    2.980000
        0.000000    2.980000    2.980000

outcell: Cell vector modules (Ang)   :    4.214356    4.214356    4.214356
outcell: Cell angles (23,13,12) (deg):     60.0000     60.0000     60.0000
outcell: Cell volume (Ang**3)        :     52.9272
<dSpData1D:S at geom step 0
  <sparsity:sparsity for geom step 0
    nrows_g=33 nrows=33 sparsity=35.9385 nnzs=39137, refcount: 7>
  <dData1D:(new from dSpData1D) n=39137, refcount: 1>
refcount: 1>
new_DM -- step:     1
Initializing Density Matrix...
DM filled with atomic data:
<dSpData2D:DM initialized from atoms
  <sparsity:sparsity for geom step 0
    nrows_g=33 nrows=33 sparsity=35.9385 nnzs=39137, refcount: 8>
  <dData2D:DM n=39137 m=1, refcount: 1>
refcount: 1>
No. of atoms with KB's overlaping orbs in proc 0. Max # of overlaps:      69     249
New grid distribution:   1
           1       1:   15    1:   15    1:   15

InitMesh: MESH =    30 x    30 x    30 =       27000
InitMesh: (bp) =    15 x    15 x    15 =        3375
InitMesh: Mesh cutoff (required, used) =   200.000   210.074 Ry
ExtMesh (bp) on 0 =    87 x    87 x    87 =      658503
PhiOnMesh: Number of (b)points on node 0 =                 3375
PhiOnMesh: nlist on node 0 =               411233

stepf: Fermi-Dirac step function

siesta: Program's energy decomposition (eV):
siesta: Ebs     =       -78.016093
siesta: Eions   =       327.497989
siesta: Ena     =        78.608397
siesta: Ekin    =       194.463834
siesta: Enl     =       -40.835788
siesta: Eso     =         0.000000
siesta: Eldau   =         0.000000
siesta: DEna    =       -35.388327
siesta: DUscf   =         7.801584
siesta: DUext   =         0.000000
siesta: Enegf   =         0.000000
siesta: Exc     =       -96.058438
siesta: eta*DQ  =         0.000000
siesta: Emadel  =         0.000000
siesta: Emeta   =         0.000000
siesta: Emolmec =        -0.193688
siesta: Ekinion =         0.000000
siesta: Eharris =      -218.266053
siesta: Etot    =      -219.100415
siesta: FreeEng =      -219.100415

        iscf     Eharris(eV)        E_KS(eV)     FreeEng(eV)     dDmax    Ef(eV) dHmax(eV)
   scf:    1     -218.266053     -219.100415     -219.100415  1.621509-11.017089  9.762991
timer: Routine,Calls,Time,% = IterSCF        1       0.972  20.52
   scf:    2     -221.933996     -220.598166     -220.598166  0.141920 -9.968758  6.791505
   scf:    3     -222.188278     -221.857623     -221.857623  0.303595 -7.536283  0.372691
   scf:    4     -221.864404     -221.883370     -221.883370  0.044920 -7.608026  0.727578
   scf:    5     -221.904473     -221.897397     -221.897397  0.033341 -7.314154  0.021298
   scf:    6     -221.897309     -221.897357     -221.897357  0.001489 -7.325276  0.046369
   scf:    7     -221.897438     -221.897402     -221.897402  0.001415 -7.314298  0.020176
   scf:    8     -221.897418     -221.897413     -221.897413  0.001073 -7.306298  0.000616
   scf:    9     -221.897413     -221.897413     -221.897413  0.000034 -7.306044  0.000016

SCF Convergence by DM+H criterion
max |DM_out - DM_in|         :     0.0000337595
max |H_out - H_in|      (eV) :     0.0000159813
SCF cycle converged after 9 iterations

Using DM_out to compute the final energy and forces
No. of atoms with KB's overlaping orbs in proc 0. Max # of overlaps:      69     249

MM-Stress (kbar):        5.38        5.36        5.42        0.00        0.02       -0.00

siesta: E_KS(eV) =             -221.8974

siesta: E_KS - E_eggbox =      -221.8974

zmatrix: Atomic forces (eV/Ang ; eV/rad )
zmatrix: (No information if symbols are used)
molecule    1 (     5 atoms)
     1    0.000000    0.000000    0.000000
     2    0.000000    0.025933    0.012653
     3    0.000000    0.000000   -0.008473
     4    0.000000    0.000000    0.000000
     5    0.000000    0.000000    0.000000


Variable forces (eV/Ang ; eV/rad )

siesta: Atomic forces (eV/Ang):
----------------------------------------
   Tot    0.002477   -0.000805   -0.001905
----------------------------------------
   Max    1.720273
   Res    0.954233    sqrt( Sum f_i^2 / 3N )
----------------------------------------
   Max    1.720273    constrained

Stress-tensor-Voigt (kbar):      -74.77      -74.51      -73.49       -0.02        0.34        0.08
(Free)E + p*V (eV/cell)     -219.4444

Inter-Molecular-Stress-Voigt (kbar):        4.29        4.55        5.56       -0.02        0.34        0.08
(Free)E + p_inter_molec * V  (eV/cell)     -222.0560
Target enthalpy (eV/cell)     -221.8974

siesta: Stress tensor (static) (eV/Ang**3):
        -0.046669   -0.000014    0.000053
        -0.000014   -0.046504    0.000215
         0.000053    0.000215   -0.045871

siesta: Pressure (static):         74.25818871  kBar

siesta: Stress tensor (total) (eV/Ang**3):
        -0.046669   -0.000014    0.000053
        -0.000014   -0.046504    0.000215
         0.000053    0.000215   -0.045871

siesta: Pressure (total):         74.25818871  kBar

siesta: Stress tensor (nonmol) (eV/Ang**3):
         0.002675   -0.000014    0.000053
        -0.000014    0.002840    0.000215
         0.000053    0.000215    0.003473

siesta: Pressure (nonmol):         -4.79964243  kBar

siesta: Stress tensor (nonmol+kin) (eV/Ang**3):
         0.002675   -0.000014    0.000053
        -0.000014    0.002840    0.000215
         0.000053    0.000215    0.003473

siesta: Pressure (nonmol+kin):         -4.79964243  kBar

Broyden_optim: max_history for broyden:   5
Broyden_optim: cycle on maxit: T
Broyden_optim: initial inverse jacobian:   1.0000

Broyden_optim: No of elements:      9

zm_broyden_optimizer: No target stress found, assuming hydrostatic MD.TargetPressure.

cgvc_zmatrix: Target stress (kBar)
cgvc_zmatrix:        -0.000       0.000       0.000
cgvc_zmatrix:         0.000      -0.000       0.000
cgvc_zmatrix:         0.000       0.000      -0.000

outcoor: Relaxed atomic coordinates (Bohr):                 
    0.00000000    0.00000000    0.00000000   1       1  C.pbe
    0.09128335    1.28722486    1.53208509   2       2  H.pbe
   -1.61079826    0.40704258   -1.11902212   2       3  H.pbe
    1.65211978    0.17565364   -1.11902244   2       4  H.pbe
   -0.13260451   -1.86992010    0.70596038   2       5  H.pbe

zmatrix: Z-matrix coordinates: (Ang ; rad )
zmatrix: (Fractional coordinates have been converted to cartesian)
molecule    1 (     5 atoms)
      0.00000000      0.00000000      0.00000000
      1.06001500      0.70000000      1.50000000
      1.06001500      1.91063300      2.09439500
      1.06001500      1.91063300      2.09439500
      1.06001500      1.91063300      2.09439500


Z-matrix Symbol Section -------
Variables
Constants
 CH           1.0600149999999999     
------------ End of Z-matrix Information


outcell: Unit cell vectors (Ang):
        2.980000    2.980000    0.000000
        2.980000    0.000000    2.980000
        0.000000    2.980000    2.980000

outcell: Cell vector modules (Ang)   :    4.214356    4.214356    4.214356
outcell: Cell angles (23,13,12) (deg):     60.0000     60.0000     60.0000
outcell: Cell volume (Ang**3)        :     52.9272

siesta: Program's energy decomposition (eV):
siesta: Ebs     =      -105.074593
siesta: Eions   =       327.497989
siesta: Ena     =        78.608397
siesta: Ekin    =       170.039728
siesta: Enl     =       -37.352422
siesta: Eso     =         0.000000
siesta: Eldau   =         0.000000
siesta: DEna    =       -17.791875
siesta: DUscf   =         2.641507
siesta: DUext   =         0.000000
siesta: Enegf   =         0.000000
siesta: Exc     =       -90.351071
siesta: eta*DQ  =         0.000000
siesta: Emadel  =         0.000000
siesta: Emeta   =         0.000000
siesta: Emolmec =        -0.193688
siesta: Ekinion =         0.000000
siesta: Eharris =      -221.897413
siesta: Etot    =      -221.897413
siesta: FreeEng =      -221.897413

siesta: Final energy (eV):
siesta:  Band Struct. =    -105.074593
siesta:       Kinetic =     170.039728
siesta:       Hartree =     108.734954
siesta:       Eldau   =       0.000000
siesta:       Eso     =       0.000000
siesta:    Ext. field =       0.000000
siesta:       Enegf   =       0.000000
siesta:   Exch.-corr. =     -90.351071
siesta:  Ion-electron =    -379.218572
siesta:       Ion-ion =     -30.908764
siesta:       Ekinion =       0.000000
siesta:         Total =    -221.897413
siesta:         Fermi =      -7.306044

siesta: Atomic forces (eV/Ang):
siesta:      1   -0.002412   -0.013058   -0.009307
siesta:      2    0.080574    1.201435    1.405292
siesta:      3   -1.487069    0.367813   -1.024584
siesta:      4    1.531072    0.163279   -1.030083
siesta:      5   -0.119688   -1.720273    0.656777
siesta: ----------------------------------------
siesta:    Tot    0.002477   -0.000805   -0.001905

siesta: Stress tensor (static) (eV/Ang**3):
siesta:    -0.046669   -0.000014    0.000053
siesta:    -0.000014   -0.046504    0.000215
siesta:     0.000053    0.000215   -0.045871

siesta: Constrained stress tensor (static) (eV/Ang**3):
siesta:     0.002675   -0.000014    0.000053
siesta:    -0.000014    0.002840    0.000215
siesta:     0.000053    0.000215    0.003473

siesta: Cell volume =         52.927184 Ang**3

siesta: Pressure (static):
siesta:                Solid            Molecule  Units
siesta:           0.00050479         -0.00003263  Ry/Bohr**3
siesta:           0.04634781         -0.00299567  eV/Ang**3
siesta:          74.25818871         -4.79964243  kBar
(Free)E+ p_basis*V_orbitals  =        -218.665040
(Free)Eharris+ p_basis*V_orbitals  =        -218.665040

timer: Elapsed wall time (sec) =      12.297
timer: CPU execution times (sec):

Routine            Calls   Time/call    Tot.time        %
siesta                 1      12.296      12.296   100.00
Setup                  1       0.253       0.253     2.06
bands                  1       0.000       0.000     0.00
KSV_init               1       0.000       0.000     0.00
IterGeom               1      12.039      12.039    97.91
state_init             1       0.498       0.498     4.05
hsparse                1       0.021       0.021     0.17
overlap                1       0.433       0.433     3.52
Setup_H0               1       3.014       3.014    24.51
naefs                  2       0.001       0.003     0.02
MolMec                 2       0.001       0.001     0.01
kinefsm                2       0.221       0.441     3.59
nlefsm                 2       0.963       1.927    15.67
DHSCF_Init             1       0.893       0.893     7.26
DHSCF1                 1       0.042       0.042     0.34
INITMESH               1       0.000       0.000     0.00
DHSCF2                 1       0.851       0.851     6.92
REMESH                 1       0.133       0.133     1.08
REORD                 37       0.000       0.003     0.02
PHION                  1       0.608       0.608     4.95
COMM_BSC              25       0.000       0.002     0.02
POISON                12       0.002       0.025     0.21
fft                   24       0.001       0.019     0.15
IterSCF                9       0.671       6.036    49.09
setup_H               10       0.343       3.426    27.86
DHSCF                 11       0.513       5.645    45.90
DHSCF3                11       0.343       3.775    30.70
rhoofd                11       0.136       1.495    12.16
CellXC                11       0.084       0.927     7.54
cellXC                11       0.084       0.927     7.54
vmat                  11       0.120       1.322    10.75
compute_dm             9       0.287       2.584    21.01
diagon                 9       0.287       2.580    20.98
c-eigval             567       0.001       0.807     6.56
c-buildHS            567       0.001       0.645     5.24
cdiag               1134       0.001       0.576     4.69
cdiag1              1134       0.000       0.053     0.43
cdiag2              1134       0.000       0.080     0.65
cdiag3              1134       0.000       0.425     3.46
c-eigvec             567       0.002       1.049     8.53
cdiag4               567       0.000       0.006     0.05
c-buildD             567       0.001       0.717     5.83
MIXER                  8       0.001       0.009     0.08
PostSCF                1       2.489       2.489    20.24
DHSCF4                 1       1.870       1.870    15.20
dfscf                  1       1.740       1.740    14.15
overfsm                1       0.015       0.015     0.12
state_analysis         1       0.001       0.001     0.01
siesta_move            1       0.000       0.000     0.00
Analysis               1       0.003       0.003     0.03
siesta_analysis        1       0.003       0.003     0.03
optical                1       0.000       0.000     0.00
  
>> End of run:  14-AUG-2019  11:15:43
Job completed
