You are running Q-Chem version: 4.4.0

#
# job setting
#
local host:  m1-che-rkanters
current dir: /Users/rkanters/tmp
input file:  benzene_plus-ROHF.inp
output file: 
nprocs     : 1
nthreads   : 4
#
# qchem installation setting
#
QC:          /Users/rkanters/Applications/qchem/qchem44
QCAUX:       /Users/rkanters/Applications/qchem/qchem44/qcaux
QCPROG:      /Users/rkanters/Applications/qchem/qchem44/exe/qcprog.exe
QCPROG_S:    /Users/rkanters/Applications/qchem/qchem44/exe/qcprog.exe_s
PARALLEL:    FALSE
QCMPI:       seq
#
# qchem directory setting
#
qcrun:       qchem17718
QCSCRATCH:   /Users/rkanters/scratch
QCLOCALSCR:  
QCTMPDIR:    /Users/rkanters/scratch
QCFILEPREF:  /Users/rkanters/scratch/qchem17718
QCSAVEDIR:   
workdirs:    /Users/rkanters/scratch/qchem17718
workdir0:    /Users/rkanters/scratch/qchem17718
partmpdirs =  
#
# parallel setting
#
 invalid QCMPI (seq) option 
QCRSH:           ssh
QCMPI:           seq
QCMPIRUN:        
QCMACHINEFILE:   /Users/rkanters/Applications/qchem/qchem44/bin/mpi/machines


#
# env setting
#
exported envs:   QC QCAUX QCSCRATCH QCRUNNAME QCFILEPREF QCPROG QCPROG_S GUIFILE

Running Job 1 of 1 benzene_plus-ROHF.inp
qchem benzene_plus-ROHF.inp_17718.0 /Users/rkanters/scratch/qchem17718/ 1
/Users/rkanters/Applications/qchem/qchem44/exe/qcprog.exe benzene_plus-ROHF.inp_17718.0 /Users/rkanters/scratch/qchem17718/
                  Welcome to Q-Chem
     A Quantum Leap Into The Future Of Chemistry


 Q-Chem 4.4, Q-Chem, Inc., Pleasanton, CA (2016)

 Y. Shao,  Z. Gan,  E. Epifanovsky,  A. T. B. Gilbert,  M. Wormit,  
 J. Kussmann,  A. W. Lange,  A. Behn,  J. Deng,  X. Feng,  D. Ghosh,  
 M. Goldey,  P. R. Horn,  L. D. Jacobson,  I. Kaliman,  R. Z. Khaliullin,  
 T. Kus,  A. Landau,  J. Liu,  E. I. Proynov,  Y. M. Rhee,  R. M. Richard,  
 M. A. Rohrdanz,  R. P. Steele,  E. J. Sundstrom,  H. L. Woodcock III,  
 P. M. Zimmerman,  D. Zuev,  B. Albrecht,  E. Alguire,  B. Austin,  
 S. A. Baeppler,  G. J. O. Beran,  Y. A. Bernard,  E. Berquist,  
 K. Brandhorst,  K. B. Bravaya,  S. T. Brown,  D. Casanova,  C.-M. Chang,  
 Y. Chen,  S. H. Chien,  K. D. Closser,  M. P. Coons,  D. L. Crittenden,  
 S. Dasgupta,  M. Diedenhofen,  R. A. DiStasio Jr.,  H. Do,  A. D. Dutoi,  
 R. G. Edgar,  P.-T. Fang,  S. Fatehi,  Q. Feng,  L. Fusti-Molnar,  
 A. Ghysels,  A. Golubeva-Zadorozhnaya,  J. Gomes,  A. Gunina,  
 M. W. D. Hanson-Heine,  P. H. P. Harbach,  A. W. Hauser,  E. G. Hohenstein,  
 Z. C. Holden,  K. Hui,  T.-C. Jagau,  H. Ji,  B. Kaduk,  K. Khistyaev,  
 Jaehoon Kim,  Jihan Kim,  R. A. King,  P. Klunzinger,  D. Kosenkov,  
 T. Kowalczyk,  C. M. Krauter,  A. Kunitsa,  K. U. Lao,  A. Laurent,  
 K. V. Lawler,  D. Lefrancois,  S. Lehtola,  S. V. Levchenko,  C. Y. Lin,  
 Y.-S. Lin,  F. Liu,  E. Livshits,  R. C. Lochan,  A. Luenser,  P. Manohar,  
 S. F. Manzer,  S.-P. Mao,  Y. Mao,  N. Mardirossian,  A. V. Marenich,  
 L. A. Martinez-Martinez,  S. A. Maurer,  N. J. Mayhall,  J.-M. Mewes,  
 A. F. Morrison,  K. Nanda,  C. M. Oana,  R. Olivares-Amaya,  D. P. O'Neill,  
 J. A. Parkhill,  T. M. Perrine,  R. Peverati,  P. A. Pieniazek,  F. Plasser,  
 A. Prociuk,  D. R. Rehn,  E. Rosta,  N. J. Russ,  N. Sergueev,  
 S. M. Sharada,  S. Sharma,  D. W. Small,  A. Sodt,  T. Stauch,  T. Stein,  
 D. Stuck,  Y.-C. Su,  A. J. W. Thom,  T. Tsuchimochi,  L. Vogt,  O. Vydrov,  
 T. Wang,  M. A. Watson,  J. Wenzel,  A. White,  C. F. Williams,  
 V. Vanovschi,  S. Yeganeh,  S. R. Yost,  Z.-Q. You,  I. Y. Zhang,  X. Zhang,  
 Y. Zhao,  B. R. Brooks,  G. K. L. Chan,  D. M. Chipman,  C. J. Cramer,  
 W. A. Goddard III,  M. S. Gordon,  W. J. Hehre,  A. Klamt,  
 H. F. Schaefer III,  M. W. Schmidt,  C. D. Sherrill,  D. G. Truhlar,  
 A. Warshel,  X. Xu,  A. Aspuru-Guzik,  R. Baer,  A. T. Bell,  N. A. Besley,  
 J.-D. Chai,  A. Dreuw,  B. D. Dunietz,  T. R. Furlani,  S. R. Gwaltney,  
 C.-P. Hsu,  Y. Jung,  J. Kong,  D. S. Lambrecht,  W. Liang,  C. Ochsenfeld,  
 V. A. Rassolov,  L. V. Slipchenko,  J. E. Subotnik,  T. Van Voorhis,  
 J. M. Herbert,  A. I. Krylov,  P. M. W. Gill,  M. Head-Gordon

 Contributors to earlier versions of Q-Chem not listed above: 
 R. D. Adamson,  J. Baker,  E. F. C. Byrd,  A. K. Chakraborty,  C.-L. Cheng,  
 H. Dachsel,  R. J. Doerksen,  G. Hawkins,  A. Heyden,  S. Hirata,  
 G. Kedziora,  F. J. Keil,  C. Kelley,  P. P. Korambath,  W. Kurlancheek,  
 A. M. Lee,  M. S. Lee,  D. Liotard,  I. Lotan,  P. E. Maslen,  N. Nair,  
 D. Neuhauser,  R. Olson,  B. Peters,  J. Ritchie,  N. E. Schultz,  
 N. Shenvi,  A. C. Simmonett,  K. S. Thanthiriwatte,  Q. Wu,  W. Zhang

 Please cite Q-Chem as follows:
 Y. Shao et al., Mol. Phys. 113, 184-215 (2015)
 DOI: 10.1080/00268976.2014.952696

 Q-Chem 4.4.0    for Mac (Intel) OS X

 Parts of Q-Chem use Armadillo 5.200.1 (Boston Tea Smuggler).
 http://arma.sourceforge.net/

 Q-Chem begins on Thu May 26 13:44:30 2016  

Host: 
0

     Scratch files written to /Users/rkanters/scratch/qchem17718//
 Apr2816 1281_ 20995  20993 2888   
Processing $rem in /Users/rkanters/Applications/qchem/qchem44/config/preferences.
 MEM_TOTAL  2000 

Checking the input file for inconsistencies... 	...done.

--------------------------------------------------------------
User input:
--------------------------------------------------------------
$comment
Benzene+ ROHF/6-31G*
$end

$molecule
1 2
C
H  1 1.084672
C  1 1.391291 2 120.799401
H  3 1.086372 1 120.612936 2 0.000000 0
C  1 1.391291 2 120.799407 3 -180.000000 0
H  5 1.086371 1 120.612927 2 0.000000 0
C  5 1.453415 1 120.799408 2 -180.000000 0
H  7 1.086371 5 118.587662 1 -180.000000 0
C  7 1.391291 5 120.799405 1 0.000000 0
H  9 1.084672 7 120.799412 5 -180.000000 0
C  9 1.391291 7 118.401191 5 0.000000 0
H  11 1.086372 9 120.612935 7 -180.000000 0
$end

$rem
jobtype             SP
exchange            HF
basis               6-31G*
unrestricted        FALSE
print_general_basis TRUE
print_orbitals      TRUE
$end

--------------------------------------------------------------
 Atom   9: ( -1.4390957562,  0.0000001988,  0.0000000000)
         ->( -1.4390957445,  0.0000003260,  0.0000000000)
 Atom   1: (  1.4390957445, -0.0000003260,  0.0000000000)
         ->(  1.4390957445,  0.0000000000,  0.0000000000)
 Atom  10: ( -2.5237677562,  0.0000005150,  0.0000000000)
         ->( -2.5237677445,  0.0000005286,  0.0000000000)
 Atom   2: (  2.5237677445, -0.0000005286,  0.0000000000)
         ->(  2.5237677445,  0.0000000000,  0.0000000000)
 Atom   7: ( -0.7267077395, -1.1950704938,  0.0000000000)
         ->( -0.7267078321, -1.1950704288,  0.0000000000)
 Atom  11: ( -0.7267073556,  1.1950706625,  0.0000000000)
         ->( -0.7267078321,  1.1950704288,  0.0000000000)
 Atom   5: (  0.7267072605, -1.1950707400,  0.0000000000)
         ->(  0.7267078321, -1.1950704288,  0.0000000000)
 Atom   8: ( -1.2465394481, -2.1489976108,  0.0000000000)
         ->( -1.2465400525, -2.1489984057,  0.0000000000)
 Atom  12: ( -1.2465392029,  2.1489988427,  0.0000000000)
         ->( -1.2465400525,  2.1489984057,  0.0000000000)
 Atom   6: (  1.2465386958, -2.1489980058,  0.0000000000)
         ->(  1.2465400525, -2.1489984057,  0.0000000000)
 ----------------------------------------------------------------
             Standard Nuclear Orientation (Angstroms)
    I     Atom           X                Y                Z
 ----------------------------------------------------------------
    1      C       1.4390957445     0.0000000000     0.0000000000
    2      H       2.5237677445     0.0000000000     0.0000000000
    3      C       0.7267078321     1.1950704288     0.0000000000
    4      H       1.2465400525     2.1489984057     0.0000000000
    5      C       0.7267078321    -1.1950704288     0.0000000000
    6      H       1.2465400525    -2.1489984057     0.0000000000
    7      C      -0.7267078321    -1.1950704288     0.0000000000
    8      H      -1.2465400525    -2.1489984057     0.0000000000
    9      C      -1.4390957445     0.0000003260     0.0000000000
   10      H      -2.5237677445     0.0000005286     0.0000000000
   11      C      -0.7267078321     1.1950704288     0.0000000000
   12      H      -1.2465400525     2.1489984057     0.0000000000
 ----------------------------------------------------------------
 Molecular Point Group                 D2h   NOp =  8
 Largest Abelian Subgroup              D2h   NOp =  8
 Nuclear Repulsion Energy =   201.3896721949 hartrees
 There are       21 alpha and       20 beta electrons
 Requested basis set is 6-31G(d)
Basis set in general basis input format:
-----------------------------------------------------------------------
$basis
C    0
S    6    1.000000
   3.04752490E+03    1.83470000E-03 
   4.57369510E+02    1.40373000E-02 
   1.03948690E+02    6.88426000E-02 
   2.92101550E+01    2.32184400E-01 
   9.28666300E+00    4.67941300E-01 
   3.16392700E+00    3.62312000E-01 
SP   3    1.000000
   7.86827240E+00   -1.19332400E-01   6.89991000E-02 
   1.88128850E+00   -1.60854200E-01   3.16424000E-01 
   5.44249300E-01    1.14345640E+00   7.44308300E-01 
SP   1    1.000000
   1.68714400E-01    1.00000000E+00   1.00000000E+00 
D    1    1.000000
   8.00000000E-01    1.00000000E+00 
****
H    0
S    3    1.000000
   1.87311370E+01    3.34946000E-02 
   2.82539370E+00    2.34726950E-01 
   6.40121700E-01    8.13757330E-01 
S    1    1.000000
   1.61277800E-01    1.00000000E+00 
****
C    0
S    6    1.000000
   3.04752490E+03    1.83470000E-03 
   4.57369510E+02    1.40373000E-02 
   1.03948690E+02    6.88426000E-02 
   2.92101550E+01    2.32184400E-01 
   9.28666300E+00    4.67941300E-01 
   3.16392700E+00    3.62312000E-01 
SP   3    1.000000
   7.86827240E+00   -1.19332400E-01   6.89991000E-02 
   1.88128850E+00   -1.60854200E-01   3.16424000E-01 
   5.44249300E-01    1.14345640E+00   7.44308300E-01 
SP   1    1.000000
   1.68714400E-01    1.00000000E+00   1.00000000E+00 
D    1    1.000000
   8.00000000E-01    1.00000000E+00 
****
H    0
S    3    1.000000
   1.87311370E+01    3.34946000E-02 
   2.82539370E+00    2.34726950E-01 
   6.40121700E-01    8.13757330E-01 
S    1    1.000000
   1.61277800E-01    1.00000000E+00 
****
C    0
S    6    1.000000
   3.04752490E+03    1.83470000E-03 
   4.57369510E+02    1.40373000E-02 
   1.03948690E+02    6.88426000E-02 
   2.92101550E+01    2.32184400E-01 
   9.28666300E+00    4.67941300E-01 
   3.16392700E+00    3.62312000E-01 
SP   3    1.000000
   7.86827240E+00   -1.19332400E-01   6.89991000E-02 
   1.88128850E+00   -1.60854200E-01   3.16424000E-01 
   5.44249300E-01    1.14345640E+00   7.44308300E-01 
SP   1    1.000000
   1.68714400E-01    1.00000000E+00   1.00000000E+00 
D    1    1.000000
   8.00000000E-01    1.00000000E+00 
****
H    0
S    3    1.000000
   1.87311370E+01    3.34946000E-02 
   2.82539370E+00    2.34726950E-01 
   6.40121700E-01    8.13757330E-01 
S    1    1.000000
   1.61277800E-01    1.00000000E+00 
****
C    0
S    6    1.000000
   3.04752490E+03    1.83470000E-03 
   4.57369510E+02    1.40373000E-02 
   1.03948690E+02    6.88426000E-02 
   2.92101550E+01    2.32184400E-01 
   9.28666300E+00    4.67941300E-01 
   3.16392700E+00    3.62312000E-01 
SP   3    1.000000
   7.86827240E+00   -1.19332400E-01   6.89991000E-02 
   1.88128850E+00   -1.60854200E-01   3.16424000E-01 
   5.44249300E-01    1.14345640E+00   7.44308300E-01 
SP   1    1.000000
   1.68714400E-01    1.00000000E+00   1.00000000E+00 
D    1    1.000000
   8.00000000E-01    1.00000000E+00 
****
H    0
S    3    1.000000
   1.87311370E+01    3.34946000E-02 
   2.82539370E+00    2.34726950E-01 
   6.40121700E-01    8.13757330E-01 
S    1    1.000000
   1.61277800E-01    1.00000000E+00 
****
C    0
S    6    1.000000
   3.04752490E+03    1.83470000E-03 
   4.57369510E+02    1.40373000E-02 
   1.03948690E+02    6.88426000E-02 
   2.92101550E+01    2.32184400E-01 
   9.28666300E+00    4.67941300E-01 
   3.16392700E+00    3.62312000E-01 
SP   3    1.000000
   7.86827240E+00   -1.19332400E-01   6.89991000E-02 
   1.88128850E+00   -1.60854200E-01   3.16424000E-01 
   5.44249300E-01    1.14345640E+00   7.44308300E-01 
SP   1    1.000000
   1.68714400E-01    1.00000000E+00   1.00000000E+00 
D    1    1.000000
   8.00000000E-01    1.00000000E+00 
****
H    0
S    3    1.000000
   1.87311370E+01    3.34946000E-02 
   2.82539370E+00    2.34726950E-01 
   6.40121700E-01    8.13757330E-01 
S    1    1.000000
   1.61277800E-01    1.00000000E+00 
****
C    0
S    6    1.000000
   3.04752490E+03    1.83470000E-03 
   4.57369510E+02    1.40373000E-02 
   1.03948690E+02    6.88426000E-02 
   2.92101550E+01    2.32184400E-01 
   9.28666300E+00    4.67941300E-01 
   3.16392700E+00    3.62312000E-01 
SP   3    1.000000
   7.86827240E+00   -1.19332400E-01   6.89991000E-02 
   1.88128850E+00   -1.60854200E-01   3.16424000E-01 
   5.44249300E-01    1.14345640E+00   7.44308300E-01 
SP   1    1.000000
   1.68714400E-01    1.00000000E+00   1.00000000E+00 
D    1    1.000000
   8.00000000E-01    1.00000000E+00 
****
H    0
S    3    1.000000
   1.87311370E+01    3.34946000E-02 
   2.82539370E+00    2.34726950E-01 
   6.40121700E-01    8.13757330E-01 
S    1    1.000000
   1.61277800E-01    1.00000000E+00 
****
$end
-----------------------------------------------------------------------
 There are 36 shells and 102 basis functions

 Total QAlloc Memory Limit   2000 MB
 Mega-Array Size        61 MB
 MEM_STATIC part        62 MB

                       Distance Matrix (Angstroms)
             C (  1)   H (  2)   C (  3)   H (  4)   C (  5)   H (  6)
   H (  2)  1.084672
   C (  3)  1.391291  2.158151
   H (  4)  2.157608  2.499901  1.086372
   C (  5)  1.391291  2.158151  2.390141  3.384231
   H (  6)  2.157608  2.499901  3.384231  4.297997  1.086372
   C (  7)  2.473641  3.463204  2.797354  3.882847  1.453416  2.191731
   H (  8)  3.439598  4.339748  3.882847  4.968725  2.191731  2.493080
   C (  9)  2.878191  3.962863  2.473641  3.439598  2.473641  3.439598
   H ( 10)  3.962863  5.047535  3.463204  4.339748  3.463205  4.339749
   C ( 11)  2.473641  3.463204  1.453416  2.191731  2.797354  3.882847
   H ( 12)  3.439598  4.339748  2.191731  2.493080  3.882847  4.968725
             C (  7)   H (  8)   C (  9)   H ( 10)   C ( 11)
   H (  8)  1.086372
   C (  9)  1.391291  2.157608
   H ( 10)  2.158152  2.499901  1.084672
   C ( 11)  2.390141  3.384231  1.391290  2.158151
   H ( 12)  3.384231  4.297997  2.157608  2.499900  1.086372
 
 A cutoff of  1.0D-09 yielded    630 shell pairs
 There are      5379 function pairs
 
 -------------------------------------------------------
 OpenMP Integral Computing Module                       
 Release: version 1.0, May 2013, Q-Chem Inc. Pittsburgh 
 -------------------------------------------------------
 Integral Job Info:
 Integral job number is                      11
 Integral operator is                         1
 short-range coefficients                     0
 long-range coefficients              100000000
 Omega coefficients                           0
 if combine SR and LR in K                    0
 Integral screening is                        0
 Integral computing path is                   2
 max size of driver memory is            800000
 size of driver memory is                593474
 size of scratch memory is              2260544
 max col of scratch BK array               1296
 max len of scratch array in speh3          155
 max len of scratch index in speh4           18
 max int batch size is                      520
 min int batch size is                       52
 fixed nKL is                                52
 max L of basis functions is                  2
 order of int derivative is                   0
 number of shells is                         36
 number of basis is                         102
 number of cartesian basis is               102
 number of contracted shell pairs           630
 number of primitive shell pairs           2550
 maxK2 (contraction) of shell pair           36
 max number of K2 of shell pair               1
 max number of CS2 of shell pair             76
 max number of PS2 of shell pair            396
 mem total for path MDJ                   27448
 -------------------------------------------------------
 Smallest overlap matrix eigenvalue = 5.77E-04

 Scale SEOQF with 1.000000e-01/1.000000e-01/1.000000e+00

 Standard Electronic Orientation quadrupole field applied
 Nucleus-field energy     =     0.0000000058 hartrees
 Constructing guess Fock matrix from core Hamiltonian
 Applying Wolfsberg-Helmholtz approximation
 A restricted Hartree-Fock SCF calculation will be
 performed using Geometric Direct Minimization
 SCF converges when RMS gradient is below 1.0E-05
 using 4 threads for integral computing 
 ---------------------------------------
  Cycle       Energy        RMS Gradient
 ---------------------------------------
    1    -227.8688468676      5.91E-01 Descent step
    2    -228.5897175627      4.84E-01 Descent step
    3    -229.1725635934      4.01E-01 Descent step
    4    -229.6323398410      3.24E-01 Descent step
    5    -229.9789672101      2.39E-01 Descent step
    6    -230.2198176165      1.49E-01 Descent step
    7    -230.3607264802      7.09E-02 Dog-leg BFGS step
    8    -230.4071095805      3.51E-03 Normal BFGS step
    9    -230.4072577916      1.40E-03 Normal BFGS step
   10    -230.4072677403      2.50E-04 Normal BFGS step
   11    -230.4072678545      1.51E-04 Normal BFGS step
   12    -230.4072679177      2.55E-05 Normal BFGS step
   13    -230.4072678003      5.09E-06 Convergence criterion met
 ---------------------------------------
 SCF time:  CPU 3.28 s  wall 0.92 s
 SCF   energy in the final basis set = -230.4072678003
 Total energy in the final basis set = -230.4072678003
 
 --------------------------------------------------------------
             Orbital Energies (a.u.) and Symmetries
 --------------------------------------------------------------
 
 Alpha MOs, Restricted
 -- Doubly Occupied --           
-11.500 -11.500 -11.499 -11.499 -11.450 -11.450  -1.386  -1.249
  1 Ag    1 B2u   1 B3u   1 B1g   2 B3u   2 Ag    3 Ag    3 B3u                
 -1.251  -1.060  -1.049  -0.930  -0.868  -0.850  -0.812  -0.812
  2 B2u   2 B1g   4 Ag    5 Ag    4 B3u   3 B2u   5 B3u   4 B2u                
 -0.728  -0.715  -0.736  -0.572
  3 B1g   6 Ag    1 B1u   1 B2g                                                
 -- Singly Occupied (Occupied) --
 -0.578
  1 B3g                                                                        
 -- Virtual --                   
 -0.117  -0.082   0.043   0.103   0.110   0.130   0.120   0.148
  1 Au    2 B1u   7 Ag    5 B2u   6 B3u   4 B1g   2 B2g   8 Ag                 
  0.154   0.240   0.256   0.260   0.279   0.448   0.497   0.521
  7 B3u   5 B1g   8 B3u   9 Ag    6 B2u   7 B2u  10 Ag    3 B1u                
  0.526   0.543   0.568   0.598   0.596   0.611   0.614   0.616
  9 B3u   6 B1g  11 Ag    7 B1g   2 B3g   3 B2g  10 B3u   8 B2u                
  0.626   0.672   0.697   0.768   0.884   0.897   0.905   0.915
 12 Ag    2 Au    4 B1u   4 B2g   8 B1g  11 B3u   9 B2u  13 Ag                 
  0.920   0.947   0.966   0.986   1.005   1.063   1.093   1.143
 12 B3u  13 B3u  10 B2u  14 Ag    9 B1g  10 B1g  15 Ag   14 B3u                
  1.154   1.226   1.265   1.419   1.459   1.468   1.505   1.516
 11 B2u  15 B3u   3 B3g   5 B1u  16 Ag   11 B1g   6 B1u   3 Au                 
  1.545   1.544   1.793   1.830   1.918   1.931   2.057   2.070
  5 B2g   4 B3g  17 Ag   12 B2u  16 B3u  18 Ag   17 B3u  13 B2u                
  2.109   2.146   2.163   2.187   2.219   2.247   2.315   2.398
 19 Ag   12 B1g   4 Au   14 B2u  18 B3u   7 B1u   6 B2g   7 B2g                
  2.403   2.597   2.655   2.719   2.776   2.791   2.824   2.844
  5 B3g  13 B1g  20 Ag    5 Au   14 B1g  19 B3u  21 Ag   20 B3u                
  2.851   3.134   3.502   4.244   4.263   4.322   4.504   4.516
 15 B2u  15 B1g  21 B3u  22 Ag   16 B2u  22 B3u  16 B1g  23 Ag                 
  4.838
 23 B3u                                                                        
 
 Beta MOs, Restricted
 -- Doubly Occupied --           
-11.496 -11.496 -11.495 -11.495 -11.450 -11.450  -1.364  -1.241
  1 Ag    1 B2u   1 B3u   1 B1g   2 B3u   2 Ag    3 Ag    3 B3u                
 -1.215  -1.045  -1.036  -0.925  -0.861  -0.842  -0.810  -0.804
  2 B2u   2 B1g   4 Ag    5 Ag    4 B3u   3 B2u   5 B3u   4 B2u                
 -0.723  -0.709  -0.654  -0.547
  3 B1g   6 Ag    1 B1u   1 B2g                                                
 -- Singly Occupied (Vacant) --  
 -0.256
  1 B3g                                                                        
 -- Virtual --                   
 -0.045  -0.032   0.046   0.106   0.111   0.137   0.157   0.150
  1 Au    2 B1u   7 Ag    5 B2u   6 B3u   4 B1g   2 B2g   8 Ag                 
  0.158   0.246   0.261   0.264   0.284   0.452   0.502   0.545
  7 B3u   5 B1g   8 B3u   9 Ag    6 B2u   7 B2u  10 Ag    3 B1u                
  0.542   0.547   0.577   0.608   0.628   0.621   0.617   0.641
  9 B3u   6 B1g  11 Ag    7 B1g   2 B3g   3 B2g  10 B3u   8 B2u                
  0.634   0.698   0.708   0.784   0.888   0.899   0.910   0.917
 12 Ag    2 Au    4 B1u   4 B2g   8 B1g  11 B3u   9 B2u  13 Ag                 
  0.922   0.951   0.972   0.989   1.008   1.071   1.097   1.145
 12 B3u  13 B3u  10 B2u  14 Ag    9 B1g  10 B1g  15 Ag   14 B3u                
  1.163   1.231   1.290   1.438   1.464   1.473   1.528   1.531
 11 B2u  15 B3u   3 B3g   5 B1u  16 Ag   11 B1g   6 B1u   3 Au                 
  1.553   1.571   1.814   1.834   1.922   1.934   2.060   2.079
  5 B2g   4 B3g  17 Ag   12 B2u  16 B3u  18 Ag   17 B3u  13 B2u                
  2.113   2.153   2.179   2.204   2.225   2.257   2.333   2.409
 19 Ag   12 B1g   4 Au   14 B2u  18 B3u   7 B1u   6 B2g   7 B2g                
  2.413   2.609   2.660   2.730   2.780   2.795   2.826   2.852
  5 B3g  13 B1g  20 Ag    5 Au   14 B1g  19 B3u  21 Ag   20 B3u                
  2.853   3.136   3.505   4.249   4.269   4.325   4.510   4.518
 15 B2u  15 B1g  21 B3u  22 Ag   16 B2u  22 B3u  16 B1g  23 Ag                 
  4.842
 23 B3u                                                                        
 --------------------------------------------------------------
 

                        RESTRICTED (RHF) MOLECULAR ORBITAL COEFFICIENTS
                         1         2         3         4         5         6
 eigenvalues:        -11.500   -11.500   -11.499   -11.499   -11.450   -11.450
   1  C 1   s        0.01251   0.00000  -0.01293   0.00000   0.70393   0.70390
   2  C 1   s        0.00004   0.00000  -0.00003   0.00000   0.01991   0.01969
   3  C 1   px       0.00019   0.00000  -0.00011   0.00000  -0.00049  -0.00043
   4  C 1   py       0.00000   0.00013   0.00000  -0.00011   0.00000   0.00000
   5  C 1   pz       0.00000   0.00000   0.00000   0.00000   0.00000   0.00000
   6  C 1   s        0.00379  -0.00001  -0.00925  -0.00001  -0.01271  -0.00934
   7  C 1   px      -0.00149   0.00001   0.00442   0.00000   0.00371   0.00159
   8  C 1   py       0.00000  -0.00110   0.00000   0.00111   0.00000   0.00000
   9  C 1   pz       0.00000   0.00000   0.00000   0.00000   0.00000   0.00000
  10  C 1   dxx     -0.00026   0.00000   0.00038   0.00000  -0.00125  -0.00129
  11  C 1   dxy      0.00000  -0.00005   0.00000   0.00011   0.00000   0.00000
  12  C 1   dyy     -0.00040   0.00000   0.00057   0.00000  -0.00107  -0.00107
  13  C 1   dxz      0.00000   0.00000   0.00000   0.00000   0.00000   0.00000
  14  C 1   dyz      0.00000   0.00000   0.00000   0.00000   0.00000   0.00000
  15  C 1   dzz     -0.00018   0.00000   0.00019   0.00000  -0.00163  -0.00174
  16  H 1   s       -0.00001   0.00000  -0.00005   0.00000  -0.00018  -0.00011
  17  H 1   s        0.00031   0.00000  -0.00079   0.00000   0.00040   0.00094
  18  C 2   s        0.49760  -0.49787  -0.49788   0.49803  -0.00958  -0.00922
  19  C 2   s        0.01353  -0.01374  -0.01383   0.01367  -0.00044  -0.00040
  20  C 2   px      -0.00011   0.00013   0.00030  -0.00027  -0.00006  -0.00001
  21  C 2   py      -0.00010   0.00018   0.00019  -0.00017   0.00013   0.00015
  22  C 2   pz       0.00000   0.00000   0.00000   0.00000   0.00000   0.00000
  23  C 2   s       -0.00460   0.00423   0.01303  -0.00810   0.00669   0.00290
  24  C 2   px      -0.00028   0.00021  -0.00257   0.00132  -0.00072   0.00030
  25  C 2   py       0.00056  -0.00063  -0.00358   0.00104  -0.00300  -0.00126
  26  C 2   pz       0.00000   0.00000   0.00000   0.00000   0.00000   0.00000
  27  C 2   dxx     -0.00109   0.00111   0.00041  -0.00044  -0.00033  -0.00019
  28  C 2   dxy     -0.00005   0.00003   0.00011  -0.00010   0.00010   0.00014
  29  C 2   dyy     -0.00084   0.00095   0.00057  -0.00072  -0.00035  -0.00028
  30  C 2   dxz      0.00000   0.00000   0.00000   0.00000   0.00000   0.00000
  31  C 2   dyz      0.00000   0.00000   0.00000   0.00000   0.00000   0.00000
  32  C 2   dzz     -0.00129   0.00123   0.00103  -0.00113  -0.00010  -0.00007
  33  H 2   s       -0.00011   0.00012   0.00014  -0.00005   0.00003  -0.00002
  34  H 2   s        0.00084  -0.00065  -0.00004   0.00062   0.00044   0.00014
  35  C 3   s        0.49776   0.49770  -0.49799  -0.49792  -0.00958  -0.00922
  36  C 3   s        0.01354   0.01373  -0.01383  -0.01366  -0.00044  -0.00040
  37  C 3   px      -0.00011  -0.00013   0.00030   0.00027  -0.00006  -0.00001
  38  C 3   py       0.00010   0.00018  -0.00019  -0.00017  -0.00013  -0.00015
  39  C 3   pz       0.00000   0.00000   0.00000   0.00000   0.00000   0.00000
  40  C 3   s       -0.00460  -0.00422   0.01303   0.00811   0.00669   0.00290
  41  C 3   px      -0.00028  -0.00021  -0.00257  -0.00132  -0.00072   0.00030
  42  C 3   py      -0.00056  -0.00061   0.00358   0.00105   0.00300   0.00126
  43  C 3   pz       0.00000   0.00000   0.00000   0.00000   0.00000   0.00000
  44  C 3   dxx     -0.00109  -0.00111   0.00041   0.00044  -0.00033  -0.00019
  45  C 3   dxy      0.00005   0.00003  -0.00011  -0.00010  -0.00010  -0.00014
  46  C 3   dyy     -0.00084  -0.00095   0.00057   0.00072  -0.00035  -0.00028
  47  C 3   dxz      0.00000   0.00000   0.00000   0.00000   0.00000   0.00000
  48  C 3   dyz      0.00000   0.00000   0.00000   0.00000   0.00000   0.00000
  49  C 3   dzz     -0.00129  -0.00123   0.00103   0.00113  -0.00010  -0.00007
  50  H 3   s       -0.00011  -0.00012   0.00014   0.00005   0.00003  -0.00002
  51  H 3   s        0.00084   0.00065  -0.00004  -0.00061   0.00044   0.00014
  52  C 4   s        0.49776   0.49770   0.49799   0.49792   0.00958  -0.00922
  53  C 4   s        0.01354   0.01373   0.01383   0.01366   0.00044  -0.00040
  54  C 4   px       0.00011   0.00013   0.00030   0.00027  -0.00006   0.00001
  55  C 4   py       0.00010   0.00018   0.00019   0.00017   0.00013  -0.00015
  56  C 4   pz       0.00000   0.00000   0.00000   0.00000   0.00000   0.00000
  57  C 4   s       -0.00460  -0.00424  -0.01303  -0.00811  -0.00670   0.00290
  58  C 4   px       0.00028   0.00021  -0.00257  -0.00132  -0.00072  -0.00030
  59  C 4   py      -0.00056  -0.00063  -0.00358  -0.00105  -0.00300   0.00126
  60  C 4   pz       0.00000   0.00000   0.00000   0.00000   0.00000   0.00000
  61  C 4   dxx     -0.00109  -0.00111  -0.00041  -0.00044   0.00033  -0.00019
  62  C 4   dxy     -0.00005  -0.00003  -0.00011  -0.00010  -0.00010   0.00014
  63  C 4   dyy     -0.00084  -0.00095  -0.00057  -0.00072   0.00035  -0.00028
  64  C 4   dxz      0.00000   0.00000   0.00000   0.00000   0.00000   0.00000
  65  C 4   dyz      0.00000   0.00000   0.00000   0.00000   0.00000   0.00000
  66  C 4   dzz     -0.00129  -0.00123  -0.00103  -0.00113   0.00010  -0.00007
  67  H 4   s       -0.00011  -0.00012  -0.00014  -0.00005  -0.00003  -0.00002
  68  H 4   s        0.00084   0.00065   0.00004   0.00061  -0.00044   0.00014
  69  C 5   s        0.01251   0.00000   0.01293   0.00000  -0.70393   0.70390
  70  C 5   s        0.00004   0.00000   0.00003   0.00000  -0.01991   0.01969
  71  C 5   px      -0.00019   0.00000  -0.00011   0.00000  -0.00049   0.00043
  72  C 5   py       0.00000   0.00013   0.00000   0.00011   0.00000   0.00000
  73  C 5   pz       0.00000   0.00000   0.00000   0.00000   0.00000   0.00000
  74  C 5   s        0.00379   0.00001   0.00925   0.00001   0.01271  -0.00934
  75  C 5   px       0.00149   0.00001   0.00442   0.00001   0.00371  -0.00159
  76  C 5   py       0.00000  -0.00110   0.00000  -0.00111   0.00000   0.00000
  77  C 5   pz       0.00000   0.00000   0.00000   0.00000   0.00000   0.00000
  78  C 5   dxx     -0.00026   0.00000  -0.00038   0.00000   0.00125  -0.00129
  79  C 5   dxy      0.00000   0.00005   0.00000   0.00011   0.00000   0.00000
  80  C 5   dyy     -0.00040   0.00000  -0.00057   0.00000   0.00107  -0.00107
  81  C 5   dxz      0.00000   0.00000   0.00000   0.00000   0.00000   0.00000
  82  C 5   dyz      0.00000   0.00000   0.00000   0.00000   0.00000   0.00000
  83  C 5   dzz     -0.00018   0.00000  -0.00019   0.00000   0.00163  -0.00174
  84  H 5   s       -0.00001   0.00000   0.00005   0.00000   0.00018  -0.00011
  85  H 5   s        0.00031   0.00000   0.00079   0.00000  -0.00040   0.00094
  86  C 6   s        0.49760  -0.49786   0.49788  -0.49803   0.00958  -0.00922
  87  C 6   s        0.01353  -0.01374   0.01383  -0.01367   0.00044  -0.00040
  88  C 6   px       0.00011  -0.00013   0.00030  -0.00027  -0.00006   0.00001
  89  C 6   py      -0.00010   0.00018  -0.00019   0.00017  -0.00013   0.00015
  90  C 6   pz       0.00000   0.00000   0.00000   0.00000   0.00000   0.00000
  91  C 6   s       -0.00460   0.00421  -0.01303   0.00810  -0.00669   0.00290
  92  C 6   px       0.00028  -0.00021  -0.00257   0.00132  -0.00072  -0.00030
  93  C 6   py       0.00056  -0.00061   0.00358  -0.00104   0.00300  -0.00126
  94  C 6   pz       0.00000   0.00000   0.00000   0.00000   0.00000   0.00000
  95  C 6   dxx     -0.00109   0.00111  -0.00041   0.00044   0.00033  -0.00019
  96  C 6   dxy      0.00005  -0.00003   0.00011  -0.00010   0.00010  -0.00014
  97  C 6   dyy     -0.00084   0.00095  -0.00057   0.00072   0.00035  -0.00028
  98  C 6   dxz      0.00000   0.00000   0.00000   0.00000   0.00000   0.00000
  99  C 6   dyz      0.00000   0.00000   0.00000   0.00000   0.00000   0.00000
 100  C 6   dzz     -0.00129   0.00123  -0.00103   0.00113   0.00010  -0.00007
 101  H 6   s       -0.00011   0.00012  -0.00014   0.00005  -0.00003  -0.00002
 102  H 6   s        0.00084  -0.00065   0.00004  -0.00062  -0.00044   0.00014
                         7         8         9        10        11        12
 eigenvalues:         -1.386    -1.249    -1.251    -1.060    -1.049    -0.930
   1  C 1   s       -0.09184   0.12660   0.00000   0.00000  -0.09984  -0.01793
   2  C 1   s        0.17525  -0.24458   0.00000   0.00000   0.19884   0.03468
   3  C 1   px      -0.06420   0.04037   0.00000   0.00000   0.04667   0.19192
   4  C 1   py       0.00000   0.00000  -0.11386   0.20337   0.00000   0.00000
   5  C 1   pz       0.00000   0.00000   0.00000   0.00000   0.00000   0.00000
   6  C 1   s        0.10518  -0.18208  -0.00002  -0.00001   0.17605   0.07289
   7  C 1   px      -0.00539   0.00035   0.00001   0.00001   0.04176   0.06641
   8  C 1   py       0.00000   0.00000  -0.01687   0.04280   0.00000   0.00000
   9  C 1   pz       0.00000   0.00000   0.00000   0.00000   0.00000   0.00000
  10  C 1   dxx      0.00587  -0.00753   0.00000   0.00000   0.01013   0.00448
  11  C 1   dxy      0.00000   0.00000   0.01200  -0.01370   0.00000   0.00000
  12  C 1   dyy      0.00771  -0.01011   0.00000   0.00000   0.00196   0.00165
  13  C 1   dxz      0.00000   0.00000   0.00000   0.00000   0.00000   0.00000
  14  C 1   dyz      0.00000   0.00000   0.00000   0.00000   0.00000   0.00000
  15  C 1   dzz     -0.00807   0.01001   0.00000   0.00000  -0.00699  -0.00106
  16  H 1   s        0.03210  -0.06680   0.00000   0.00000   0.09906   0.11106
  17  H 1   s        0.00045  -0.00736   0.00000   0.00000   0.02045   0.04807
  18  C 2   s       -0.09137   0.06714   0.10977  -0.08939   0.04903  -0.00785
  19  C 2   s        0.17936  -0.13346  -0.22151   0.18504  -0.10104   0.01526
  20  C 2   px      -0.02641  -0.07985   0.05903   0.11666   0.14111   0.11302
  21  C 2   py      -0.05576   0.06681  -0.00977  -0.00221  -0.13120   0.16830
  22  C 2   pz       0.00000   0.00000   0.00000   0.00000   0.00000   0.00000
  23  C 2   s        0.11143  -0.10609  -0.16525   0.16852  -0.09380   0.03550
  24  C 2   px      -0.00630  -0.00847   0.00840   0.03977   0.02821   0.04314
  25  C 2   py      -0.01018   0.00794  -0.00840   0.03023  -0.04692   0.07232
  26  C 2   pz       0.00000   0.00000   0.00000   0.00000   0.00000   0.00000
  27  C 2   dxx      0.00830   0.00393  -0.01422  -0.00287  -0.01154  -0.00033
  28  C 2   dxy     -0.00161   0.00602  -0.00185   0.00084  -0.00822   0.00192
  29  C 2   dyy      0.00733  -0.01245  -0.00389   0.01237   0.00317   0.00506
  30  C 2   dxz      0.00000   0.00000   0.00000   0.00000   0.00000   0.00000
  31  C 2   dyz      0.00000   0.00000   0.00000   0.00000   0.00000   0.00000
  32  C 2   dzz     -0.00894   0.00543   0.00955  -0.00636   0.00419  -0.00048
  33  H 2   s        0.03403  -0.03674  -0.06650   0.09464  -0.06076   0.10828
  34  H 2   s        0.00345  -0.00445  -0.00847   0.01695  -0.01460   0.04308
  35  C 3   s       -0.09137   0.06714  -0.10977   0.08939   0.04903  -0.00785
  36  C 3   s        0.17936  -0.13346   0.22151  -0.18504  -0.10104   0.01526
  37  C 3   px      -0.02641  -0.07985  -0.05903  -0.11666   0.14112   0.11302
  38  C 3   py       0.05576  -0.06681  -0.00977  -0.00221   0.13120  -0.16830
  39  C 3   pz       0.00000   0.00000   0.00000   0.00000   0.00000   0.00000
  40  C 3   s        0.11143  -0.10609   0.16528  -0.16849  -0.09380   0.03550
  41  C 3   px      -0.00630  -0.00847  -0.00841  -0.03978   0.02820   0.04314
  42  C 3   py       0.01017  -0.00794  -0.00838   0.03025   0.04692  -0.07232
  43  C 3   pz       0.00000   0.00000   0.00000   0.00000   0.00000   0.00000
  44  C 3   dxx      0.00830   0.00393   0.01422   0.00287  -0.01154  -0.00033
  45  C 3   dxy      0.00161  -0.00602  -0.00185   0.00084   0.00822  -0.00192
  46  C 3   dyy      0.00733  -0.01245   0.00389  -0.01237   0.00317   0.00506
  47  C 3   dxz      0.00000   0.00000   0.00000   0.00000   0.00000   0.00000
  48  C 3   dyz      0.00000   0.00000   0.00000   0.00000   0.00000   0.00000
  49  C 3   dzz     -0.00894   0.00543  -0.00955   0.00636   0.00419  -0.00048
  50  H 3   s        0.03403  -0.03674   0.06650  -0.09464  -0.06075   0.10828
  51  H 3   s        0.00345  -0.00445   0.00848  -0.01694  -0.01460   0.04308
  52  C 4   s       -0.09137  -0.06714  -0.10977  -0.08939   0.04903  -0.00785
  53  C 4   s        0.17936   0.13346   0.22151   0.18504  -0.10104   0.01526
  54  C 4   px       0.02641  -0.07985   0.05903  -0.11666  -0.14111  -0.11302
  55  C 4   py       0.05576   0.06681  -0.00977   0.00221   0.13120  -0.16830
  56  C 4   pz       0.00000   0.00000   0.00000   0.00000   0.00000   0.00000
  57  C 4   s        0.11143   0.10609   0.16524   0.16848  -0.09380   0.03550
  58  C 4   px       0.00630  -0.00847   0.00840  -0.03978  -0.02821  -0.04314
  59  C 4   py       0.01018   0.00794  -0.00840  -0.03026   0.04692  -0.07232
  60  C 4   pz       0.00000   0.00000   0.00000   0.00000   0.00000   0.00000
  61  C 4   dxx      0.00830  -0.00393   0.01422  -0.00287  -0.01154  -0.00033
  62  C 4   dxy     -0.00161  -0.00602   0.00185   0.00084  -0.00822   0.00192
  63  C 4   dyy      0.00733   0.01245   0.00389   0.01237   0.00317   0.00506
  64  C 4   dxz      0.00000   0.00000   0.00000   0.00000   0.00000   0.00000
  65  C 4   dyz      0.00000   0.00000   0.00000   0.00000   0.00000   0.00000
  66  C 4   dzz     -0.00894  -0.00543  -0.00955  -0.00636   0.00419  -0.00048
  67  H 4   s        0.03403   0.03674   0.06650   0.09463  -0.06076   0.10828
  68  H 4   s        0.00345   0.00445   0.00847   0.01694  -0.01460   0.04308
  69  C 5   s       -0.09184  -0.12660   0.00000   0.00000  -0.09984  -0.01793
  70  C 5   s        0.17525   0.24458   0.00000   0.00000   0.19884   0.03468
  71  C 5   px       0.06420   0.04037   0.00000   0.00000  -0.04667  -0.19192
  72  C 5   py       0.00000   0.00000  -0.11386  -0.20337   0.00000   0.00000
  73  C 5   pz       0.00000   0.00000   0.00000   0.00000   0.00000   0.00000
  74  C 5   s        0.10518   0.18208   0.00003   0.00002   0.17605   0.07289
  75  C 5   px       0.00539   0.00035   0.00002   0.00001  -0.04176  -0.06641
  76  C 5   py       0.00000   0.00000  -0.01687  -0.04280   0.00001   0.00000
  77  C 5   pz       0.00000   0.00000   0.00000   0.00000   0.00000   0.00000
  78  C 5   dxx      0.00587   0.00753   0.00000   0.00000   0.01013   0.00448
  79  C 5   dxy      0.00000   0.00000  -0.01200  -0.01370   0.00000   0.00000
  80  C 5   dyy      0.00771   0.01011   0.00000   0.00000   0.00196   0.00165
  81  C 5   dxz      0.00000   0.00000   0.00000   0.00000   0.00000   0.00000
  82  C 5   dyz      0.00000   0.00000   0.00000   0.00000   0.00000   0.00000
  83  C 5   dzz     -0.00807  -0.01001   0.00000   0.00000  -0.00699  -0.00106
  84  H 5   s        0.03210   0.06680   0.00000   0.00000   0.09906   0.11106
  85  H 5   s        0.00045   0.00736   0.00001   0.00001   0.02045   0.04807
  86  C 6   s       -0.09137  -0.06714   0.10977   0.08939   0.04903  -0.00785
  87  C 6   s        0.17936   0.13346  -0.22151  -0.18504  -0.10104   0.01526
  88  C 6   px       0.02641  -0.07985  -0.05903   0.11666  -0.14112  -0.11302
  89  C 6   py      -0.05576  -0.06681  -0.00977   0.00221  -0.13120   0.16830
  90  C 6   pz       0.00000   0.00000   0.00000   0.00000   0.00000   0.00000
  91  C 6   s        0.11142   0.10608  -0.16529  -0.16852  -0.09380   0.03551
  92  C 6   px       0.00631  -0.00847  -0.00841   0.03977  -0.02820  -0.04314
  93  C 6   py      -0.01017  -0.00794  -0.00837  -0.03023  -0.04692   0.07232
  94  C 6   pz       0.00000   0.00000   0.00000   0.00000   0.00000   0.00000
  95  C 6   dxx      0.00830  -0.00393  -0.01422   0.00287  -0.01154  -0.00033
  96  C 6   dxy      0.00161   0.00602   0.00185   0.00084   0.00822  -0.00192
  97  C 6   dyy      0.00733   0.01245  -0.00390  -0.01237   0.00317   0.00506
  98  C 6   dxz      0.00000   0.00000   0.00000   0.00000   0.00000   0.00000
  99  C 6   dyz      0.00000   0.00000   0.00000   0.00000   0.00000   0.00000
 100  C 6   dzz     -0.00894  -0.00543   0.00955   0.00636   0.00419  -0.00048
 101  H 6   s        0.03403   0.03674  -0.06650  -0.09464  -0.06075   0.10828
 102  H 6   s        0.00345   0.00445  -0.00848  -0.01695  -0.01460   0.04308
                        13        14        15        16        17        18
 eigenvalues:         -0.868    -0.850    -0.812    -0.812    -0.728    -0.715
   1  C 1   s       -0.06111   0.00000  -0.00164   0.00000   0.00000   0.00252
   2  C 1   s        0.12705   0.00000   0.00144   0.00000   0.00000  -0.00249
   3  C 1   px       0.07512   0.00000   0.31758  -0.00001   0.00000  -0.23835
   4  C 1   py       0.00000   0.27113   0.00000  -0.07598  -0.24790   0.00000
   5  C 1   pz       0.00000   0.00000   0.00000   0.00000   0.00000   0.00000
   6  C 1   s        0.06231   0.00001   0.03437   0.00000   0.00000  -0.02216
   7  C 1   px       0.10997   0.00000   0.16222   0.00000   0.00000  -0.16972
   8  C 1   py       0.00000   0.07854   0.00000  -0.02945  -0.09184   0.00000
   9  C 1   pz       0.00000   0.00000   0.00000   0.00000   0.00000   0.00000
  10  C 1   dxx      0.01547   0.00000   0.01756   0.00000   0.00000  -0.02616
  11  C 1   dxy      0.00000  -0.01260   0.00000   0.01441   0.01711   0.00000
  12  C 1   dyy     -0.01025   0.00000  -0.00858   0.00000   0.00000   0.01823
  13  C 1   dxz      0.00000   0.00000   0.00000   0.00000   0.00000   0.00000
  14  C 1   dyz      0.00000   0.00000   0.00000   0.00000   0.00000   0.00000
  15  C 1   dzz     -0.00336   0.00000  -0.00058   0.00000   0.00000   0.00057
  16  H 1   s        0.10090   0.00000   0.18602   0.00000   0.00000  -0.16663
  17  H 1   s        0.02562   0.00000   0.09584   0.00000   0.00000  -0.09987
  18  C 2   s        0.05475  -0.00324   0.01810   0.01549   0.00242  -0.00207
  19  C 2   s       -0.11668   0.00702  -0.04001  -0.03615  -0.00963   0.00273
  20  C 2   px      -0.06277   0.23645   0.00334   0.17293  -0.01576   0.24356
  21  C 2   py      -0.15466  -0.14411   0.14415   0.20727   0.24610  -0.01086
  22  C 2   pz       0.00000   0.00000   0.00000   0.00000   0.00000   0.00000
  23  C 2   s       -0.08020   0.00909  -0.01735  -0.00975   0.01284   0.00122
  24  C 2   px      -0.05592   0.08346   0.00266   0.07911   0.01000   0.11760
  25  C 2   py      -0.13515  -0.05099   0.05428   0.10559   0.14993   0.02552
  26  C 2   pz       0.00000   0.00000   0.00000   0.00000   0.00000   0.00000
  27  C 2   dxx      0.00433  -0.00918   0.00890  -0.00997  -0.00108  -0.01612
  28  C 2   dxy     -0.01740  -0.00547   0.00837   0.00667   0.02277   0.00448
  29  C 2   dyy     -0.01090   0.00663  -0.00638   0.01550   0.00871   0.01829
  30  C 2   dxz      0.00000   0.00000   0.00000   0.00000   0.00000   0.00000
  31  C 2   dyz      0.00000   0.00000   0.00000   0.00000   0.00000   0.00000
  32  C 2   dzz      0.00338   0.00010   0.00054   0.00020  -0.00075  -0.00028
  33  H 2   s       -0.14615  -0.00464   0.05473   0.14014   0.13911   0.07815
  34  H 2   s       -0.04813  -0.00314   0.03264   0.07510   0.08413   0.04794
  35  C 3   s        0.05475   0.00324   0.01810  -0.01550  -0.00242  -0.00207
  36  C 3   s       -0.11668  -0.00702  -0.04001   0.03615   0.00963   0.00273
  37  C 3   px      -0.06277  -0.23645   0.00333  -0.17293   0.01576   0.24356
  38  C 3   py       0.15466  -0.14411  -0.14414   0.20727   0.24610   0.01086
  39  C 3   pz       0.00000   0.00000   0.00000   0.00000   0.00000   0.00000
  40  C 3   s       -0.08020  -0.00910  -0.01735   0.00976  -0.01284   0.00122
  41  C 3   px      -0.05592  -0.08345   0.00265  -0.07912  -0.01000   0.11760
  42  C 3   py       0.13515  -0.05099  -0.05427   0.10560   0.14992  -0.02551
  43  C 3   pz       0.00000   0.00000   0.00000   0.00000   0.00000   0.00000
  44  C 3   dxx      0.00433   0.00918   0.00890   0.00997   0.00108  -0.01612
  45  C 3   dxy      0.01740  -0.00547  -0.00837   0.00667   0.02277  -0.00448
  46  C 3   dyy     -0.01090  -0.00663  -0.00638  -0.01550  -0.00871   0.01829
  47  C 3   dxz      0.00000   0.00000   0.00000   0.00000   0.00000   0.00000
  48  C 3   dyz      0.00000   0.00000   0.00000   0.00000   0.00000   0.00000
  49  C 3   dzz      0.00338  -0.00010   0.00054  -0.00020   0.00075  -0.00028
  50  H 3   s       -0.14615   0.00464   0.05473  -0.14015  -0.13911   0.07815
  51  H 3   s       -0.04813   0.00314   0.03264  -0.07510  -0.08414   0.04794
  52  C 4   s       -0.05475   0.00324  -0.01810  -0.01549   0.00242  -0.00207
  53  C 4   s        0.11668  -0.00702   0.04001   0.03615  -0.00963   0.00273
  54  C 4   px      -0.06277   0.23645   0.00334   0.17293   0.01576  -0.24356
  55  C 4   py      -0.15466  -0.14411   0.14415   0.20727  -0.24610   0.01086
  56  C 4   pz       0.00000   0.00000   0.00000   0.00000   0.00000   0.00000
  57  C 4   s        0.08020  -0.00909   0.01735   0.00975   0.01284   0.00122
  58  C 4   px      -0.05591   0.08346   0.00266   0.07911  -0.01000  -0.11760
  59  C 4   py      -0.13515  -0.05099   0.05428   0.10559  -0.14992  -0.02552
  60  C 4   pz       0.00000   0.00000   0.00000   0.00000   0.00000   0.00000
  61  C 4   dxx     -0.00433   0.00918  -0.00890   0.00997  -0.00108  -0.01612
  62  C 4   dxy      0.01740   0.00547  -0.00837  -0.00667   0.02277   0.00448
  63  C 4   dyy      0.01090  -0.00663   0.00638  -0.01550   0.00871   0.01829
  64  C 4   dxz      0.00000   0.00000   0.00000   0.00000   0.00000   0.00000
  65  C 4   dyz      0.00000   0.00000   0.00000   0.00000   0.00000   0.00000
  66  C 4   dzz     -0.00338  -0.00010  -0.00054  -0.00020  -0.00075  -0.00028
  67  H 4   s        0.14615   0.00464  -0.05473  -0.14014   0.13911   0.07815
  68  H 4   s        0.04813   0.00315  -0.03264  -0.07510   0.08414   0.04794
  69  C 5   s        0.06111   0.00000   0.00164   0.00000   0.00000   0.00252
  70  C 5   s       -0.12705   0.00000  -0.00144   0.00000   0.00000  -0.00249
  71  C 5   px       0.07512   0.00000   0.31758  -0.00001   0.00000   0.23835
  72  C 5   py       0.00000   0.27113   0.00000  -0.07598   0.24790   0.00000
  73  C 5   pz       0.00000   0.00000   0.00000   0.00000   0.00000   0.00000
  74  C 5   s       -0.06231  -0.00001  -0.03437   0.00001   0.00000  -0.02216
  75  C 5   px       0.10997   0.00000   0.16222   0.00000   0.00000   0.16972
  76  C 5   py      -0.00001   0.07854   0.00000  -0.02945   0.09184   0.00000
  77  C 5   pz       0.00000   0.00000   0.00000   0.00000   0.00000   0.00000
  78  C 5   dxx     -0.01547   0.00000  -0.01756   0.00000   0.00000  -0.02616
  79  C 5   dxy      0.00000   0.01260   0.00000  -0.01441   0.01711   0.00000
  80  C 5   dyy      0.01025   0.00000   0.00858   0.00000   0.00000   0.01823
  81  C 5   dxz      0.00000   0.00000   0.00000   0.00000   0.00000   0.00000
  82  C 5   dyz      0.00000   0.00000   0.00000   0.00000   0.00000   0.00000
  83  C 5   dzz      0.00336   0.00000   0.00058   0.00000   0.00000   0.00057
  84  H 5   s       -0.10090   0.00000  -0.18602   0.00000   0.00000  -0.16663
  85  H 5   s       -0.02562   0.00000  -0.09584   0.00000   0.00000  -0.09987
  86  C 6   s       -0.05475  -0.00324  -0.01810   0.01550  -0.00242  -0.00207
  87  C 6   s        0.11668   0.00702   0.04001  -0.03615   0.00963   0.00273
  88  C 6   px      -0.06277  -0.23645   0.00333  -0.17293  -0.01576  -0.24356
  89  C 6   py       0.15466  -0.14411  -0.14414   0.20727  -0.24610  -0.01086
  90  C 6   pz       0.00000   0.00000   0.00000   0.00000   0.00000   0.00000
  91  C 6   s        0.08021   0.00910   0.01734  -0.00976  -0.01284   0.00122
  92  C 6   px      -0.05592  -0.08345   0.00265  -0.07912   0.01000  -0.11760
  93  C 6   py       0.13515  -0.05099  -0.05427   0.10560  -0.14993   0.02551
  94  C 6   pz       0.00000   0.00000   0.00000   0.00000   0.00000   0.00000
  95  C 6   dxx     -0.00433  -0.00918  -0.00890  -0.00997   0.00108  -0.01612
  96  C 6   dxy     -0.01740   0.00547   0.00837  -0.00667   0.02277  -0.00448
  97  C 6   dyy      0.01090   0.00663   0.00638   0.01550  -0.00871   0.01829
  98  C 6   dxz      0.00000   0.00000   0.00000   0.00000   0.00000   0.00000
  99  C 6   dyz      0.00000   0.00000   0.00000   0.00000   0.00000   0.00000
 100  C 6   dzz     -0.00338   0.00010  -0.00054   0.00020   0.00075  -0.00028
 101  H 6   s        0.14615  -0.00464  -0.05473   0.14015  -0.13911   0.07815
 102  H 6   s        0.04813  -0.00314  -0.03264   0.07510  -0.08413   0.04794
                        19        20        21        22        23        24
 eigenvalues:         -0.736    -0.572    -0.578    -0.117    -0.082     0.043
   1  C 1   s        0.00000   0.00000   0.00000   0.00000   0.00000  -0.03240
   2  C 1   s        0.00000   0.00000   0.00000   0.00000   0.00000   0.05689
   3  C 1   px       0.00000   0.00000   0.00000   0.00000   0.00000   0.08678
   4  C 1   py       0.00000   0.00000   0.00000   0.00000   0.00000   0.00000
   5  C 1   pz       0.22464  -0.31480   0.00000   0.00000   0.31360   0.00000
   6  C 1   s        0.00000   0.00000   0.00000   0.00000   0.00000   0.45088
   7  C 1   px       0.00000   0.00000   0.00000   0.00000   0.00000   0.25222
   8  C 1   py       0.00000   0.00000   0.00000   0.00000   0.00000   0.00000
   9  C 1   pz       0.14826  -0.24879   0.00000   0.00000   0.55088   0.00000
  10  C 1   dxx      0.00000   0.00000   0.00000   0.00000   0.00000  -0.02099
  11  C 1   dxy      0.00000   0.00000   0.00000   0.00000   0.00000   0.00000
  12  C 1   dyy      0.00000   0.00000   0.00000   0.00000   0.00000   0.01575
  13  C 1   dxz     -0.01485   0.01341   0.00000   0.00000   0.00749   0.00000
  14  C 1   dyz      0.00000   0.00000  -0.02096  -0.03251   0.00000   0.00000
  15  C 1   dzz      0.00000   0.00000   0.00000   0.00000   0.00000   0.00290
  16  H 1   s        0.00000   0.00000   0.00000   0.00000   0.00000  -0.04842
  17  H 1   s        0.00000   0.00000   0.00000   0.00000   0.00000  -0.65925
  18  C 2   s        0.00000   0.00000   0.00000   0.00000   0.00000  -0.03925
  19  C 2   s        0.00000   0.00000   0.00000   0.00000   0.00000   0.06783
  20  C 2   px       0.00000   0.00000   0.00000   0.00000   0.00000   0.05242
  21  C 2   py       0.00000   0.00000   0.00000   0.00000   0.00000   0.09356
  22  C 2   pz       0.20379  -0.16694  -0.28275  -0.28608  -0.16162   0.00000
  23  C 2   s        0.00000   0.00000   0.00000   0.00000   0.00000   0.56040
  24  C 2   px       0.00000   0.00000   0.00000   0.00000   0.00000   0.16335
  25  C 2   py       0.00000   0.00000   0.00000   0.00000   0.00000   0.28345
  26  C 2   pz       0.13216  -0.13334  -0.22682  -0.45065  -0.28787   0.00000
  27  C 2   dxx      0.00000   0.00000   0.00000   0.00000   0.00000   0.00732
  28  C 2   dxy      0.00000   0.00000   0.00000   0.00000   0.00000  -0.01931
  29  C 2   dyy      0.00000   0.00000   0.00000   0.00000   0.00000  -0.01256
  30  C 2   dxz     -0.00458  -0.01333   0.01575  -0.01686   0.02517   0.00000
  31  C 2   dyz     -0.01332   0.01524   0.00238   0.00134  -0.01894   0.00000
  32  C 2   dzz      0.00000   0.00000   0.00000   0.00000   0.00000   0.00297
  33  H 2   s        0.00000   0.00000   0.00000   0.00000   0.00000  -0.05373
  34  H 2   s        0.00000   0.00000   0.00000   0.00000   0.00000  -0.80000
  35  C 3   s        0.00000   0.00000   0.00000   0.00000   0.00000  -0.03925
  36  C 3   s        0.00000   0.00000   0.00000   0.00000   0.00000   0.06783
  37  C 3   px       0.00000   0.00000   0.00000   0.00000   0.00000   0.05242
  38  C 3   py       0.00000   0.00000   0.00000   0.00000   0.00000  -0.09356
  39  C 3   pz       0.20379  -0.16694   0.28275   0.28609  -0.16162   0.00000
  40  C 3   s        0.00000   0.00000   0.00000   0.00000   0.00000   0.56040
  41  C 3   px       0.00000   0.00000   0.00000   0.00000   0.00000   0.16335
  42  C 3   py       0.00000   0.00000   0.00000   0.00000   0.00000  -0.28345
  43  C 3   pz       0.13216  -0.13334   0.22682   0.45065  -0.28787   0.00000
  44  C 3   dxx      0.00000   0.00000   0.00000   0.00000   0.00000   0.00732
  45  C 3   dxy      0.00000   0.00000   0.00000   0.00000   0.00000   0.01931
  46  C 3   dyy      0.00000   0.00000   0.00000   0.00000   0.00000  -0.01256
  47  C 3   dxz     -0.00458  -0.01333  -0.01575   0.01686   0.02517   0.00000
  48  C 3   dyz      0.01332  -0.01524   0.00238   0.00134   0.01894   0.00000
  49  C 3   dzz      0.00000   0.00000   0.00000   0.00000   0.00000   0.00297
  50  H 3   s        0.00000   0.00000   0.00000   0.00000   0.00000  -0.05373
  51  H 3   s        0.00000   0.00000   0.00000   0.00000   0.00000  -0.80000
  52  C 4   s        0.00000   0.00000   0.00000   0.00000   0.00000  -0.03925
  53  C 4   s        0.00000   0.00000   0.00000   0.00000   0.00000   0.06783
  54  C 4   px       0.00000   0.00000   0.00000   0.00000   0.00000  -0.05242
  55  C 4   py       0.00000   0.00000   0.00000   0.00000   0.00000  -0.09356
  56  C 4   pz       0.20379   0.16694   0.28275  -0.28608  -0.16162   0.00000
  57  C 4   s        0.00000   0.00000   0.00000   0.00000   0.00000   0.56040
  58  C 4   px       0.00000   0.00000   0.00000   0.00000   0.00000  -0.16335
  59  C 4   py       0.00000   0.00000   0.00000   0.00000   0.00000  -0.28345
  60  C 4   pz       0.13216   0.13334   0.22682  -0.45065  -0.28787   0.00000
  61  C 4   dxx      0.00000   0.00000   0.00000   0.00000   0.00000   0.00732
  62  C 4   dxy      0.00000   0.00000   0.00000   0.00000   0.00000  -0.01931
  63  C 4   dyy      0.00000   0.00000   0.00000   0.00000   0.00000  -0.01256
  64  C 4   dxz      0.00458  -0.01333   0.01575   0.01686  -0.02517   0.00000
  65  C 4   dyz      0.01332   0.01524   0.00238  -0.00134   0.01894   0.00000
  66  C 4   dzz      0.00000   0.00000   0.00000   0.00000   0.00000   0.00297
  67  H 4   s        0.00000   0.00000   0.00000   0.00000   0.00000  -0.05373
  68  H 4   s        0.00000   0.00000   0.00000   0.00000   0.00000  -0.80000
  69  C 5   s        0.00000   0.00000   0.00000   0.00000   0.00000  -0.03240
  70  C 5   s        0.00000   0.00000   0.00000   0.00000   0.00000   0.05689
  71  C 5   px       0.00000   0.00000   0.00000   0.00000   0.00000  -0.08678
  72  C 5   py       0.00000   0.00000   0.00000   0.00000   0.00000   0.00000
  73  C 5   pz       0.22464   0.31480   0.00000   0.00000   0.31360   0.00000
  74  C 5   s        0.00000   0.00000   0.00000   0.00000   0.00000   0.45088
  75  C 5   px       0.00000   0.00000   0.00000   0.00000   0.00000  -0.25222
  76  C 5   py       0.00000   0.00000   0.00000   0.00000   0.00000   0.00000
  77  C 5   pz       0.14826   0.24879   0.00000   0.00000   0.55088   0.00000
  78  C 5   dxx      0.00000   0.00000   0.00000   0.00000   0.00000  -0.02099
  79  C 5   dxy      0.00000   0.00000   0.00000   0.00000   0.00000   0.00000
  80  C 5   dyy      0.00000   0.00000   0.00000   0.00000   0.00000   0.01575
  81  C 5   dxz      0.01485   0.01341   0.00000   0.00000  -0.00749   0.00000
  82  C 5   dyz      0.00000   0.00000  -0.02096   0.03251   0.00000   0.00000
  83  C 5   dzz      0.00000   0.00000   0.00000   0.00000   0.00000   0.00290
  84  H 5   s        0.00000   0.00000   0.00000   0.00000   0.00000  -0.04842
  85  H 5   s        0.00000   0.00000   0.00000   0.00000   0.00000  -0.65925
  86  C 6   s        0.00000   0.00000   0.00000   0.00000   0.00000  -0.03925
  87  C 6   s        0.00000   0.00000   0.00000   0.00000   0.00000   0.06783
  88  C 6   px       0.00000   0.00000   0.00000   0.00000   0.00000  -0.05242
  89  C 6   py       0.00000   0.00000   0.00000   0.00000   0.00000   0.09356
  90  C 6   pz       0.20379   0.16694  -0.28275   0.28609  -0.16162   0.00000
  91  C 6   s        0.00000   0.00000   0.00000   0.00000   0.00000   0.56040
  92  C 6   px       0.00000   0.00000   0.00000   0.00000   0.00000  -0.16335
  93  C 6   py       0.00000   0.00000   0.00000   0.00000   0.00000   0.28345
  94  C 6   pz       0.13216   0.13334  -0.22682   0.45065  -0.28787   0.00000
  95  C 6   dxx      0.00000   0.00000   0.00000   0.00000   0.00000   0.00732
  96  C 6   dxy      0.00000   0.00000   0.00000   0.00000   0.00000   0.01931
  97  C 6   dyy      0.00000   0.00000   0.00000   0.00000   0.00000  -0.01256
  98  C 6   dxz      0.00458  -0.01333  -0.01575  -0.01686  -0.02517   0.00000
  99  C 6   dyz     -0.01332  -0.01524   0.00238  -0.00134  -0.01894   0.00000
 100  C 6   dzz      0.00000   0.00000   0.00000   0.00000   0.00000   0.00297
 101  H 6   s        0.00000   0.00000   0.00000   0.00000   0.00000  -0.05373
 102  H 6   s        0.00000   0.00000   0.00000   0.00000   0.00000  -0.80000
                        25        26
 eigenvalues:          0.103     0.110
   1  C 1   s        0.00000   0.03277
   2  C 1   s        0.00000  -0.01538
   3  C 1   px       0.00000  -0.19323
   4  C 1   py      -0.02293   0.00000
   5  C 1   pz       0.00000   0.00000
   6  C 1   s        0.00000  -0.98851
   7  C 1   px       0.00000  -0.50777
   8  C 1   py       0.24669   0.00000
   9  C 1   pz       0.00000   0.00000
  10  C 1   dxx      0.00000   0.01364
  11  C 1   dxy     -0.01260   0.00000
  12  C 1   dyy      0.00000  -0.01454
  13  C 1   dxz      0.00000   0.00000
  14  C 1   dyz      0.00000   0.00000
  15  C 1   dzz      0.00000   0.00234
  16  H 1   s        0.00000   0.03147
  17  H 1   s        0.00000   1.13831
  18  C 2   s        0.03241   0.02219
  19  C 2   s       -0.02425  -0.02333
  20  C 2   px      -0.07751  -0.08804
  21  C 2   py      -0.16870  -0.08859
  22  C 2   pz       0.00000   0.00000
  23  C 2   s       -0.88400  -0.47725
  24  C 2   px      -0.37479  -0.06623
  25  C 2   py      -0.43918  -0.45909
  26  C 2   pz       0.00000   0.00000
  27  C 2   dxx      0.00004  -0.01056
  28  C 2   dxy      0.01252  -0.00001
  29  C 2   dyy     -0.00049   0.01300
  30  C 2   dxz      0.00000   0.00000
  31  C 2   dyz      0.00000   0.00000
  32  C 2   dzz      0.00151   0.00002
  33  H 2   s        0.02593   0.02282
  34  H 2   s        1.11920   0.76568
  35  C 3   s       -0.03241   0.02219
  36  C 3   s        0.02425  -0.02333
  37  C 3   px       0.07751  -0.08804
  38  C 3   py      -0.16870   0.08859
  39  C 3   pz       0.00000   0.00000
  40  C 3   s        0.88400  -0.47725
  41  C 3   px       0.37479  -0.06623
  42  C 3   py      -0.43918   0.45909
  43  C 3   pz       0.00000   0.00000
  44  C 3   dxx     -0.00004  -0.01056
  45  C 3   dxy      0.01252   0.00001
  46  C 3   dyy      0.00049   0.01300
  47  C 3   dxz      0.00000   0.00000
  48  C 3   dyz      0.00000   0.00000
  49  C 3   dzz     -0.00151   0.00002
  50  H 3   s       -0.02593   0.02282
  51  H 3   s       -1.11919   0.76569
  52  C 4   s       -0.03241  -0.02219
  53  C 4   s        0.02425   0.02333
  54  C 4   px      -0.07751  -0.08804
  55  C 4   py      -0.16870  -0.08859
  56  C 4   pz       0.00000   0.00000
  57  C 4   s        0.88400   0.47725
  58  C 4   px      -0.37479  -0.06623
  59  C 4   py      -0.43918  -0.45909
  60  C 4   pz       0.00000   0.00000
  61  C 4   dxx     -0.00004   0.01056
  62  C 4   dxy     -0.01252   0.00001
  63  C 4   dyy      0.00049  -0.01300
  64  C 4   dxz      0.00000   0.00000
  65  C 4   dyz      0.00000   0.00000
  66  C 4   dzz     -0.00151  -0.00002
  67  H 4   s       -0.02593  -0.02282
  68  H 4   s       -1.11920  -0.76568
  69  C 5   s        0.00000  -0.03277
  70  C 5   s        0.00000   0.01538
  71  C 5   px       0.00000  -0.19323
  72  C 5   py      -0.02293   0.00000
  73  C 5   pz       0.00000   0.00000
  74  C 5   s        0.00001   0.98851
  75  C 5   px       0.00000  -0.50777
  76  C 5   py       0.24669   0.00000
  77  C 5   pz       0.00000   0.00000
  78  C 5   dxx      0.00000  -0.01364
  79  C 5   dxy      0.01260   0.00000
  80  C 5   dyy      0.00000   0.01454
  81  C 5   dxz      0.00000   0.00000
  82  C 5   dyz      0.00000   0.00000
  83  C 5   dzz      0.00000  -0.00234
  84  H 5   s        0.00000  -0.03147
  85  H 5   s        0.00000  -1.13831
  86  C 6   s        0.03241  -0.02219
  87  C 6   s       -0.02425   0.02333
  88  C 6   px       0.07751  -0.08804
  89  C 6   py      -0.16870   0.08859
  90  C 6   pz       0.00000   0.00000
  91  C 6   s       -0.88400   0.47725
  92  C 6   px       0.37479  -0.06623
  93  C 6   py      -0.43918   0.45909
  94  C 6   pz       0.00000   0.00000
  95  C 6   dxx      0.00004   0.01056
  96  C 6   dxy     -0.01252  -0.00001
  97  C 6   dyy     -0.00049  -0.01300
  98  C 6   dxz      0.00000   0.00000
  99  C 6   dyz      0.00000   0.00000
 100  C 6   dzz      0.00151  -0.00002
 101  H 6   s        0.02593  -0.02282
 102  H 6   s        1.11919  -0.76569
 
          Ground-State Mulliken Net Atomic Charges

     Atom                 Charge (a.u.)
  ----------------------------------------
      1 C                    -0.209861
      2 H                     0.300516
      3 C                    -0.109138
      4 H                     0.313826
      5 C                    -0.109169
      6 H                     0.313825
      7 C                    -0.109135
      8 H                     0.313831
      9 C                    -0.209861
     10 H                     0.300516
     11 C                    -0.109172
     12 H                     0.313820
  ----------------------------------------
  Sum of atomic charges =     1.000000

 -----------------------------------------------------------------
                    Cartesian Multipole Moments
 -----------------------------------------------------------------
    Charge (ESU x 10^10)
                 4.8032
    Dipole Moment (Debye)
         X       0.0000      Y       0.0000      Z       0.0000
       Tot       0.0000
    Quadrupole Moments (Debye-Ang)
        XX     -21.8165     XY       0.0000     YY     -18.1200
        XZ       0.0000     YZ       0.0000     ZZ     -36.1477
    Octopole Moments (Debye-Ang^2)
       XXX       0.0000    XXY       0.0000    XYY       0.0000
       YYY       0.0000    XXZ       0.0000    XYZ       0.0000
       YYZ       0.0000    XZZ       0.0000    YZZ       0.0000
       ZZZ       0.0000
    Hexadecapole Moments (Debye-Ang^3)
      XXXX    -223.9330   XXXY       0.0001   XXYY     -68.6302
      XYYY       0.0000   YYYY    -194.8340   XXXZ       0.0000
      XXYZ       0.0000   XYYZ       0.0000   YYYZ       0.0000
      XXZZ     -59.7506   XYZZ       0.0000   YYZZ     -52.6989
      XZZZ       0.0000   YZZZ       0.0000   ZZZZ     -37.2494
 -----------------------------------------------------------------
Archival summary:
1\1\m1-che-rkanters\SP\ROHF\6-31G*\12(1+,2)\ThuMay2613:44:312016ThuMay2613:44:312016\0\\#,ROHF,6-31G*,\\1,2\C\H,1,1.08467\C,1,1.39129,2,120.799\H,3,1.08637,1,120.613,2,0,0\C,1,1.39129,2,120.799,3,-180,0\H,5,1.08637,1,120.613,2,0,0\C,5,1.45342,1,120.799,2,-180,0\H,7,1.08637,5,118.588,1,180,0\C,7,1.39129,5,120.799,1,0,0\H,9,1.08467,7,120.799,5,-180,0\C,9,1.39129,7,118.401,5,0,0\H,11,1.08637,9,120.613,7,180,0\\HF=-230.407268\\@

 Total job time:  1.07s(wall), 3.63s(cpu) 
 Thu May 26 13:44:31 2016

        *************************************************************
        *                                                           *
        *  Thank you very much for using Q-Chem.  Have a nice day.  *
        *                                                           *
        *************************************************************


remove work dirs /Users/rkanters/scratch/qchem17718.0 -- /Users/rkanters/scratch/qchem17718.0
rm -rf /Users/rkanters/scratch/qchem17718.0
rm -rf /Users/rkanters/scratch/qchem17718
