 argument  1 = c24h14.nw
                                         
                                         


              Northwest Computational Chemistry Package (NWChem) 6.0
              ------------------------------------------------------


                    Environmental Molecular Sciences Laboratory
                       Pacific Northwest National Laboratory
                                Richland, WA 99352

                              Copyright (c) 1994-2010
                       Pacific Northwest National Laboratory
                            Battelle Memorial Institute

             NWChem is an open-source computational chemistry package
                        distributed under the terms of the
                      Educational Community License (ECL) 2.0
             A copy of the license is included with this distribution
                              in the LICENSE.TXT file

                                  ACKNOWLEDGMENT
                                  --------------

            This software and its documentation were developed at the
            EMSL at Pacific Northwest National Laboratory, a multiprogram
            national laboratory, operated for the U.S. Department of Energy
            by Battelle under Contract Number DE-AC05-76RL01830. Support
            for this work was provided by the Department of Energy Office
            of Biological and Environmental Research, Office of Basic
            Energy Sciences, and the Office of Advanced Scientific Computing.


           Job information
           ---------------

    hostname      = jansky
    program       = /usr/local/NWChem-6.0/bin/nwchem-openmpi-acml
    date          = Mon Jul 18 19:21:05 2011

    compiled      = mar_giu_28_11:54:16_2011
    source        = /homes/hubble/gmulas/archivi/nwchem-6.0
    nwchem branch = 6.0
    input         = c24h14.nw
    prefix        = c24h10(1,2)h4.
    data base     = .//c24h10(1,2)h4.db
    status        = restart
    nproc         =        4
    time left     =     -1s



           Memory information
           ------------------

    heap     =  130790593 doubles =    997.9 Mbytes
    stack    =  130790593 doubles =    997.9 Mbytes
    global   =  261581184 doubles =   1995.7 Mbytes (distinct from heap & stack)
    total    =  523162370 doubles =   3991.4 Mbytes
    verify   = yes
    hardfail = no 


           Directory information
           ---------------------

  0 permanent = ./
  0 scratch   = /home/gmulas/scratch


           Previous task information
           -------------------------

    Theory    = dft                             
    Operation = optimize                      
    Status    = ok                            
    Qmmm      = F
    Ignore    = F


           Geometries in the database
           --------------------------

       Name                              Natoms  Last Modified
       --------------------------------  ------  ------------------------
    1  driverinitial                         38  Mon Jul 18 15:44:02 2011  
    2  geometry                              38  Mon Jul 18 19:17:10 2011  

  The geometry named "geometry" is the default for restart



           Basis sets in the database
           --------------------------

       Name                              Natoms  Last Modified
        --------------------------------  ------  ------------------------
    1  ao basis                               0  Mon Jul 18 15:44:02 2011  

  The basis set named "ao basis" is the default AO basis for restart




                                NWChem Input Module
                                -------------------


                    B3LYP/4-31G freq calculation c24h14 singlet
                    -------------------------------------------
  library name resolved from: .nwchemrc
  library file name is: </usr/local/NWChem-6.0/data/libraries/>
  


 Summary of "ao basis" -> "" (cartesian)
 ------------------------------------------------------------------------------
       Tag                 Description            Shells   Functions and Types
 ---------------- ------------------------------  ------  ---------------------
 *                           4-31g                    on all atoms 




                   NWChem Nuclear Hessian and Frequency Analysis
                   ---------------------------------------------



                              NWChem Analytic Hessian
                              -----------------------

  itol2e modified to match energy
  convergence criterion.

                                 NWChem DFT Module
                                 -----------------


                    B3LYP/4-31G freq calculation c24h14 singlet


                      Basis "ao basis" -> "ao basis" (cartesian)
                      -----
  C (Carbon)
  ----------
            Exponent  Coefficients 
       -------------- ---------------------------------------------------------
  1 S  4.86966930E+02  0.017726
  1 S  7.33710940E+01  0.123479
  1 S  1.64134580E+01  0.433875
  1 S  4.34498360E+00  0.561504

  2 S  8.67352530E+00 -0.121384
  2 S  2.09661930E+00 -0.227339
  2 S  6.04651300E-01  1.185174

  3 P  8.67352530E+00  0.063545
  3 P  2.09661930E+00  0.298268
  3 P  6.04651300E-01  0.762103

  4 S  1.83557800E-01  1.000000

  5 P  1.83557800E-01  1.000000

  H (Hydrogen)
  ------------
            Exponent  Coefficients 
       -------------- ---------------------------------------------------------
  1 S  1.87311370E+01  0.033495
  1 S  2.82539440E+00  0.234727
  1 S  6.40121700E-01  0.813757

  2 S  1.61277800E-01  1.000000



 Summary of "ao basis" -> "ao basis" (cartesian)
 ------------------------------------------------------------------------------
       Tag                 Description            Shells   Functions and Types
 ---------------- ------------------------------  ------  ---------------------
 C                           4-31g                   5        9   3s2p
 H                           4-31g                   2        2   2s


  Caching 1-el integrals 
  itol2e modified to match energy
  convergence criterion.

            General Information
            -------------------
          SCF calculation type: DFT
          Wavefunction type:  closed shell.
          No. of atoms     :    38
          No. of electrons :   158
           Alpha electrons :    79
            Beta electrons :    79
          Charge           :     0
          Spin multiplicity:     1
          Use of symmetry is: off; symmetry adaption is: off
          Maximum number of iterations: 200
          AO basis - number of functions:   244
                     number of shells:   148
          Convergence on energy requested: 1.00D-07
          Convergence on density requested: 1.00D-05
          Convergence on gradient requested: 1.00D-06

              XC Information
              --------------
                         B3LYP Method XC Potential
                     Hartree-Fock (Exact) Exchange  0.200          
                        Slater Exchange Functional  0.800 local    
                    Becke 1988 Exchange Functional  0.720 non-local
              Lee-Yang-Parr Correlation Functional  0.810          
                  VWN I RPA Correlation Functional  0.190 local    

             Grid Information
             ----------------
          Grid used for XC integration:  fine      
          Radial quadrature: Mura-Knowles        
          Angular quadrature: Lebedev. 
          Tag              B.-S. Rad. Rad. Pts. Rad. Cut. Ang. Pts.
          ---              ---------- --------- --------- ---------
          C                   0.70       70          14.0       590
          H                   0.35       60          14.0       590
          Grid pruning is: on 
          Number of quadrature shells:  2520
          Spatial weights used:  Erf1

          Convergence Information
          -----------------------
          Convergence aids based upon iterative change in 
          total energy or number of iterations. 
          Levelshifting, if invoked, occurs when the 
          HOMO/LUMO gap drops below (HL_TOL): 1.00D-02
          DIIS, if invoked, will attempt to extrapolate 
          using up to (NFOCK): 10 stored Fock matrices.

                    Damping( 0%)  Levelshifting(0.5)       DIIS
                  --------------- ------------------- ---------------
          dE  on:    start            ASAP                start   
          dE off:    2 iters        200 iters           200 iters 


      Screening Tolerance Information
      -------------------------------
          Density screening/tol_rho: 1.00D-11
          AO Gaussian exp screening on grid/accAOfunc:  16
          CD Gaussian exp screening on grid/accCDfunc:  20
          XC Gaussian exp screening on grid/accXCfunc:  20
          Schwarz screening/accCoul: 1.00D-08


 Loading old vectors from job with title :

B3LYP/4-31G geom calculation c24h14 singlet

   Time after variat. SCF:      0.3
   Time prior to 1st pass:      0.3

 Grid_pts file          = /home/gmulas/scratch/c24h10(1,2)h4.gridpts.0
 Record size in doubles =  12289        No. of grid_pts per rec  =   3070
 Max. records in memory =    135        Max. recs in file   =    288655

 WARNING: error on integrated density =  0.17D-06
 greater than required accuracy of  0.10D-06

           Memory utilization after 1st SCF pass: 
           Heap Space remaining (MW):      129.12           129121428
          Stack Space remaining (MW):      130.79           130787557

   convergence    iter        energy       DeltaE   RMS-Dens  Diis-err    time
 ---------------- ----- ----------------- --------- --------- ---------  ------
 d= 0,ls=0.0,diis     1   -921.8918023377 -2.79D+03  2.70D-05  6.47D-07    24.7
 WARNING: error on integrated density =  0.17D-06
 greater than required accuracy of  0.10D-06
 d= 0,ls=0.0,diis     2   -921.8918023787 -4.10D-08  4.96D-07  6.79D-10    45.3


         Total DFT energy =     -921.891802378740
      One electron energy =    -4956.980270618368
           Coulomb energy =     2303.147949827884
    Exchange-Corr. energy =     -135.701412685346
 Nuclear repulsion energy =     1867.641931097090

 Numeric. integr. density =      158.000026744916

     Total iterative time =     45.0s



                       DFT Final Molecular Orbital Analysis
                       ------------------------------------

 Vector   24  Occ=2.000000D+00  E=-1.017087D+01
              MO Center= -4.9D-01, -6.8D-01,  7.6D-04, r^2= 2.2D+00
   Bfn.  Coefficient  Atom+Function         Bfn.  Coefficient  Atom+Function  
  ----- ------------  ---------------      ----- ------------  ---------------
    46     -0.480813   6 C  s                19     -0.480546   3 C  s         
    37     -0.443999   5 C  s                28     -0.443815   4 C  s         
   136      0.250088  16 C  s               163      0.250012  19 C  s         

 Vector   25  Occ=2.000000D+00  E=-9.015822D-01
              MO Center= -1.2D-01, -1.6D-01,  1.5D-03, r^2= 5.9D+00
   Bfn.  Coefficient  Atom+Function         Bfn.  Coefficient  Atom+Function  
  ----- ------------  ---------------      ----- ------------  ---------------
    38     -0.124931   5 C  s                29     -0.124931   4 C  s         
    20     -0.121722   3 C  s                47     -0.121722   6 C  s         
    11     -0.114458   2 C  s                 2     -0.114458   1 C  s         

 Vector   26  Occ=2.000000D+00  E=-8.672025D-01
              MO Center=  8.2D-04,  1.8D-02,  1.8D-03, r^2= 8.9D+00
   Bfn.  Coefficient  Atom+Function         Bfn.  Coefficient  Atom+Function  
  ----- ------------  ---------------      ----- ------------  ---------------
   110      0.133397  13 C  s               191     -0.133397  22 C  s         

 Vector   27  Occ=2.000000D+00  E=-8.641773D-01
              MO Center= -8.3D-02, -1.0D-01,  1.6D-03, r^2= 9.0D+00
   Bfn.  Coefficient  Atom+Function         Bfn.  Coefficient  Atom+Function  
  ----- ------------  ---------------      ----- ------------  ---------------
   137     -0.117344  16 C  s               164     -0.117343  19 C  s         
    56      0.111820   7 C  s                83      0.111819  10 C  s         

 Vector   28  Occ=2.000000D+00  E=-8.176007D-01
              MO Center=  3.3D-02,  6.4D-02,  1.9D-03, r^2= 1.1D+01
   Bfn.  Coefficient  Atom+Function         Bfn.  Coefficient  Atom+Function  
  ----- ------------  ---------------      ----- ------------  ---------------
   191      0.132278  22 C  s               110      0.132278  13 C  s         

 Vector   29  Occ=2.000000D+00  E=-8.203825D-01
              MO Center= -9.5D-02, -1.2D-01,  1.6D-03, r^2= 1.1D+01
   Bfn.  Coefficient  Atom+Function         Bfn.  Coefficient  Atom+Function  
  ----- ------------  ---------------      ----- ------------  ---------------
   173      0.117172  20 C  s               128     -0.117171  15 C  s         
   137     -0.115509  16 C  s               164      0.115509  19 C  s         
   213     -0.112758  24 C  s                96      0.112758  11 C  s         
    92      0.111227  11 C  s               209     -0.111226  24 C  s         
    56     -0.109728   7 C  s                83      0.109727  10 C  s         

 Vector   30  Occ=2.000000D+00  E=-7.724319D-01
              MO Center=  4.4D-02,  8.0D-02,  1.9D-03, r^2= 1.4D+01
   Bfn.  Coefficient  Atom+Function         Bfn.  Coefficient  Atom+Function  
  ----- ------------  ---------------      ----- ------------  ---------------
    69     -0.130093   8 C  s                78     -0.130090   9 C  s         

 Vector   31  Occ=2.000000D+00  E=-8.020189D-01
              MO Center= -2.3D-02, -1.6D-02,  1.7D-03, r^2= 9.1D+00
   Bfn.  Coefficient  Atom+Function         Bfn.  Coefficient  Atom+Function  
  ----- ------------  ---------------      ----- ------------  ---------------
    20     -0.098733   3 C  s                47     -0.098733   6 C  s         
    29     -0.097801   4 C  s                38     -0.097800   5 C  s         
    78      0.091992   9 C  s                69      0.091991   8 C  s         

 Vector   32  Occ=2.000000D+00  E=-7.573710D-01
              MO Center= -2.4D-02, -1.7D-02,  1.7D-03, r^2= 1.1D+01
   Bfn.  Coefficient  Atom+Function         Bfn.  Coefficient  Atom+Function  
  ----- ------------  ---------------      ----- ------------  ---------------
   191     -0.129851  22 C  s               110      0.129851  13 C  s         
   164      0.128091  19 C  s               137     -0.128091  16 C  s         
    83     -0.124386  10 C  s                56      0.124385   7 C  s         

 Vector   33  Occ=2.000000D+00  E=-7.411006D-01
              MO Center=  5.0D-02,  8.8D-02,  1.9D-03, r^2= 9.0D+00
   Bfn.  Coefficient  Atom+Function         Bfn.  Coefficient  Atom+Function  
  ----- ------------  ---------------      ----- ------------  ---------------
    11     -0.147132   2 C  s                 2     -0.147122   1 C  s         
    38      0.143301   5 C  s                29      0.143290   4 C  s         

 Vector   34  Occ=2.000000D+00  E=-7.091820D-01
              MO Center= -5.6D-02, -6.3D-02,  1.7D-03, r^2= 1.3D+01
   Bfn.  Coefficient  Atom+Function         Bfn.  Coefficient  Atom+Function  
  ----- ------------  ---------------      ----- ------------  ---------------
   204     -0.127518  23 C  s               105      0.127518  12 C  s         
   168     -0.125452  19 C  s               141      0.125450  16 C  s         
   123     -0.124589  14 C  s               186      0.124588  21 C  s         
   101      0.121802  12 C  s               200     -0.121801  23 C  s         
   182      0.119385  21 C  s               119     -0.119385  14 C  s         

 Vector   35  Occ=2.000000D+00  E=-7.407637D-01
              MO Center= -3.2D-02, -2.9D-02,  1.7D-03, r^2= 8.7D+00
   Bfn.  Coefficient  Atom+Function         Bfn.  Coefficient  Atom+Function  
  ----- ------------  ---------------      ----- ------------  ---------------
    20     -0.171645   3 C  s                47      0.171645   6 C  s         
    24     -0.151804   3 C  s                51      0.151803   6 C  s         

 Vector   36  Occ=2.000000D+00  E=-7.097103D-01
              MO Center= -2.3D-02, -1.6D-02,  1.7D-03, r^2= 1.3D+01
   Bfn.  Coefficient  Atom+Function         Bfn.  Coefficient  Atom+Function  
  ----- ------------  ---------------      ----- ------------  ---------------
   195     -0.139883  22 C  s               114     -0.139882  13 C  s         
    96      0.126773  11 C  s               213      0.126763  24 C  s         

 Vector   37  Occ=2.000000D+00  E=-6.324016D-01
              MO Center= -1.1D-01, -1.3D-01,  1.6D-03, r^2= 9.5D+00
   Bfn.  Coefficient  Atom+Function         Bfn.  Coefficient  Atom+Function  
  ----- ------------  ---------------      ----- ------------  ---------------
    24      0.152108   3 C  s                51      0.152101   6 C  s         

 Vector   38  Occ=2.000000D+00  E=-6.407865D-01
              MO Center=  7.0D-01,  1.0D+00,  3.2D-03, r^2= 1.0D+01
   Bfn.  Coefficient  Atom+Function         Bfn.  Coefficient  Atom+Function  
  ----- ------------  ---------------      ----- ------------  ---------------
    78      0.210614   9 C  s                69     -0.210613   8 C  s         

 Vector   39  Occ=2.000000D+00  E=-6.279144D-01
              MO Center= -2.9D-01, -3.9D-01,  1.2D-03, r^2= 1.3D+01
   Bfn.  Coefficient  Atom+Function         Bfn.  Coefficient  Atom+Function  
  ----- ------------  ---------------      ----- ------------  ---------------
   123      0.135858  14 C  s               186      0.135856  21 C  s         
   168     -0.132599  19 C  s               141     -0.132598  16 C  s         
   204     -0.126717  23 C  s               105     -0.126713  12 C  s         

 Vector   40  Occ=2.000000D+00  E=-6.213896D-01
              MO Center=  1.1D-01,  1.7D-01,  2.0D-03, r^2= 1.1D+01
   Bfn.  Coefficient  Atom+Function         Bfn.  Coefficient  Atom+Function  
  ----- ------------  ---------------      ----- ------------  ---------------
    13     -0.134929   2 C  py                3     -0.126979   1 C  px        

 Vector   41  Occ=2.000000D+00  E=-6.320141D-01
              MO Center= -2.9D-01, -4.0D-01,  1.2D-03, r^2= 1.2D+01
   Bfn.  Coefficient  Atom+Function         Bfn.  Coefficient  Atom+Function  
  ----- ------------  ---------------      ----- ------------  ---------------
   213      0.137775  24 C  s                96     -0.137770  11 C  s         
   150      0.131075  17 C  s               159     -0.131072  18 C  s         

 Vector   42  Occ=2.000000D+00  E=-5.738847D-01
              MO Center=  2.2D-01,  3.3D-01,  2.2D-03, r^2= 1.4D+01
   Bfn.  Coefficient  Atom+Function         Bfn.  Coefficient  Atom+Function  
  ----- ------------  ---------------      ----- ------------  ---------------
    78      0.186699   9 C  s                69     -0.186697   8 C  s         

 Vector   43  Occ=2.000000D+00  E=-5.556074D-01
              MO Center= -1.1D-01, -1.4D-01,  1.6D-03, r^2= 1.2D+01
   Bfn.  Coefficient  Atom+Function         Bfn.  Coefficient  Atom+Function  
  ----- ------------  ---------------      ----- ------------  ---------------
    51     -0.140310   6 C  s                24      0.140305   3 C  s         

 Vector   44  Occ=2.000000D+00  E=-5.411121D-01
              MO Center= -3.2D-01, -4.3D-01,  1.1D-03, r^2= 1.3D+01
   Bfn.  Coefficient  Atom+Function         Bfn.  Coefficient  Atom+Function  
  ----- ------------  ---------------      ----- ------------  ---------------
   195      0.142608  22 C  s               114     -0.142604  13 C  s         
    51     -0.137759   6 C  s                24      0.137755   3 C  s         

 Vector   45  Occ=2.000000D+00  E=-5.349008D-01
              MO Center= -3.0D-02, -2.6D-02,  1.7D-03, r^2= 1.2D+01
   Bfn.  Coefficient  Atom+Function         Bfn.  Coefficient  Atom+Function  
  ----- ------------  ---------------      ----- ------------  ---------------
     3      0.130707   1 C  px               30      0.130567   4 C  px        
   210     -0.123506  24 C  px               42      0.120329   5 C  s         
    33      0.120323   4 C  s                94     -0.119912  11 C  py        
   129     -0.118979  15 C  px        

 Vector   46  Occ=2.000000D+00  E=-5.304696D-01
              MO Center= -3.1D-01, -4.2D-01,  1.2D-03, r^2= 1.1D+01
   Bfn.  Coefficient  Atom+Function         Bfn.  Coefficient  Atom+Function  
  ----- ------------  ---------------      ----- ------------  ---------------
   148     -0.141240  17 C  py                4      0.130777   1 C  py        
    49     -0.127326   6 C  py        

 Vector   47  Occ=2.000000D+00  E=-5.089418D-01
              MO Center= -2.7D-01, -3.7D-01,  1.2D-03, r^2= 1.2D+01
   Bfn.  Coefficient  Atom+Function         Bfn.  Coefficient  Atom+Function  
  ----- ------------  ---------------      ----- ------------  ---------------
   121      0.143250  14 C  py              130     -0.142048  15 C  py        
   211      0.138827  24 C  py              174     -0.137170  20 C  px        
    93      0.136774  11 C  px              166     -0.130062  19 C  py        
   156      0.130022  18 C  px        

 Vector   48  Occ=2.000000D+00  E=-4.790229D-01
              MO Center=  8.9D-01,  1.3D+00,  3.6D-03, r^2= 1.2D+01
   Bfn.  Coefficient  Atom+Function         Bfn.  Coefficient  Atom+Function  
  ----- ------------  ---------------      ----- ------------  ---------------
    68      0.180918   8 C  pz               77      0.180853   9 C  pz        

 Vector   49  Occ=2.000000D+00  E=-4.747249D-01
              MO Center= -1.2D-02, -3.6D-04,  1.8D-03, r^2= 1.5D+01
   Bfn.  Coefficient  Atom+Function         Bfn.  Coefficient  Atom+Function  
  ----- ------------  ---------------      ----- ------------  ---------------
   120     -0.165262  14 C  px              201      0.164718  23 C  px        
    15     -0.152222   2 C  s                 6      0.152222   1 C  s         
    33      0.151669   4 C  s                42     -0.151668   5 C  s         

 Vector   50  Occ=2.000000D+00  E=-4.656319D-01
              MO Center= -1.7D-01, -2.3D-01,  1.4D-03, r^2= 1.4D+01
   Bfn.  Coefficient  Atom+Function         Bfn.  Coefficient  Atom+Function  
  ----- ------------  ---------------      ----- ------------  ---------------
    51      0.170986   6 C  s                24      0.170982   3 C  s         

 Vector   51  Occ=2.000000D+00  E=-4.533545D-01
              MO Center= -2.4D-01, -3.2D-01,  1.3D-03, r^2= 1.3D+01
   Bfn.  Coefficient  Atom+Function         Bfn.  Coefficient  Atom+Function  
  ----- ------------  ---------------      ----- ------------  ---------------
    49      0.170005   6 C  py              141     -0.156121  16 C  s         
   168      0.156120  19 C  s         

 Vector   52  Occ=2.000000D+00  E=-4.521182D-01
              MO Center= -1.5D-02, -4.8D-03,  1.8D-03, r^2= 1.3D+01
   Bfn.  Coefficient  Atom+Function         Bfn.  Coefficient  Atom+Function  
  ----- ------------  ---------------      ----- ------------  ---------------
   195      0.190802  22 C  s               114      0.190800  13 C  s         
    39     -0.172168   5 C  px               12      0.152977   2 C  px        

 Vector   53  Occ=2.000000D+00  E=-4.480911D-01
              MO Center=  7.8D-01,  1.1D+00,  3.4D-03, r^2= 1.2D+01
   Bfn.  Coefficient  Atom+Function         Bfn.  Coefficient  Atom+Function  
  ----- ------------  ---------------      ----- ------------  ---------------
    77      0.155028   9 C  pz               68      0.154874   8 C  pz        

 Vector   54  Occ=2.000000D+00  E=-4.470424D-01
              MO Center= -1.8D-01, -2.4D-01,  1.4D-03, r^2= 1.4D+01
   Bfn.  Coefficient  Atom+Function         Bfn.  Coefficient  Atom+Function  
  ----- ------------  ---------------      ----- ------------  ---------------
   147     -0.185358  17 C  px              202      0.164114  23 C  py        
   102      0.158169  12 C  px              156      0.157266  18 C  px        

 Vector   55  Occ=2.000000D+00  E=-4.239609D-01
              MO Center= -6.4D-01, -9.0D-01,  4.7D-04, r^2= 1.2D+01
   Bfn.  Coefficient  Atom+Function         Bfn.  Coefficient  Atom+Function  
  ----- ------------  ---------------      ----- ------------  ---------------
    40      0.180699   5 C  py               30      0.164188   4 C  px        
   157      0.150882  18 C  py        

 Vector   56  Occ=2.000000D+00  E=-4.183811D-01
              MO Center=  2.3D-01,  3.4D-01,  2.3D-03, r^2= 1.1D+01
   Bfn.  Coefficient  Atom+Function         Bfn.  Coefficient  Atom+Function  
  ----- ------------  ---------------      ----- ------------  ---------------
     3      0.175459   1 C  px              201      0.171233  23 C  px        
    39     -0.161614   5 C  px        

 Vector   57  Occ=2.000000D+00  E=-3.995775D-01
              MO Center=  7.2D-02,  1.2D-01,  1.9D-03, r^2= 1.4D+01
   Bfn.  Coefficient  Atom+Function         Bfn.  Coefficient  Atom+Function  
  ----- ------------  ---------------      ----- ------------  ---------------
   121     -0.194979  14 C  py              202      0.192305  23 C  py        
   130      0.183513  15 C  py              211     -0.183032  24 C  py        
   183      0.178699  21 C  px              174     -0.175629  20 C  px        
   102     -0.175198  12 C  px               93      0.169507  11 C  px        

 Vector   58  Occ=2.000000D+00  E=-3.825289D-01
              MO Center= -1.2D-01, -1.6D-01,  1.5D-03, r^2= 1.3D+01
   Bfn.  Coefficient  Atom+Function         Bfn.  Coefficient  Atom+Function  
  ----- ------------  ---------------      ----- ------------  ---------------
   156     -0.178510  18 C  px              147      0.152868  17 C  px        

 Vector   59  Occ=2.000000D+00  E=-4.204832D-01
              MO Center= -7.3D-02, -8.7D-02,  1.6D-03, r^2= 1.2D+01
   Bfn.  Coefficient  Atom+Function         Bfn.  Coefficient  Atom+Function  
  ----- ------------  ---------------      ----- ------------  ---------------
   210      0.155645  24 C  px        

 Vector   60  Occ=2.000000D+00  E=-4.094932D-01
              MO Center=  3.2D-01,  4.7D-01,  2.5D-03, r^2= 1.2D+01
   Bfn.  Coefficient  Atom+Function         Bfn.  Coefficient  Atom+Function  
  ----- ------------  ---------------      ----- ------------  ---------------
    76      0.172540   9 C  py        

 Vector   61  Occ=2.000000D+00  E=-4.145737D-01
              MO Center= -3.7D-01, -5.1D-01,  1.0D-03, r^2= 7.6D+00
   Bfn.  Coefficient  Atom+Function         Bfn.  Coefficient  Atom+Function  
  ----- ------------  ---------------      ----- ------------  ---------------
    41      0.168054   5 C  pz               32      0.168033   4 C  pz        

 Vector   62  Occ=2.000000D+00  E=-3.692623D-01
              MO Center= -2.6D-01, -3.5D-01,  1.3D-03, r^2= 1.4D+01
   Bfn.  Coefficient  Atom+Function         Bfn.  Coefficient  Atom+Function  
  ----- ------------  ---------------      ----- ------------  ---------------
   120      0.159193  14 C  px              129     -0.154310  15 C  px        

 Vector   63  Occ=2.000000D+00  E=-3.741547D-01
              MO Center= -4.2D-02, -4.2D-02,  1.7D-03, r^2= 1.5D+01
   Bfn.  Coefficient  Atom+Function         Bfn.  Coefficient  Atom+Function  
  ----- ------------  ---------------      ----- ------------  ---------------
   201     -0.167882  23 C  px              210      0.165701  24 C  px        
   103      0.153824  12 C  py              112     -0.152195  13 C  py        
    94     -0.151892  11 C  py        

 Vector   64  Occ=2.000000D+00  E=-3.681700D-01
              MO Center=  3.5D-01,  5.1D-01,  2.5D-03, r^2= 1.2D+01
   Bfn.  Coefficient  Atom+Function         Bfn.  Coefficient  Atom+Function  
  ----- ------------  ---------------      ----- ------------  ---------------
    77      0.180487   9 C  pz               68     -0.180411   8 C  pz        

 Vector   65  Occ=2.000000D+00  E=-3.612262D-01
              MO Center= -4.3D-01, -6.0D-01,  9.0D-04, r^2= 1.1D+01
   Bfn.  Coefficient  Atom+Function         Bfn.  Coefficient  Atom+Function  
  ----- ------------  ---------------      ----- ------------  ---------------
   149      0.135541  17 C  pz              158      0.135341  18 C  pz        
   167      0.128625  19 C  pz              140      0.128481  16 C  pz        
    14     -0.124946   2 C  pz                5     -0.124847   1 C  pz        

 Vector   66  Occ=2.000000D+00  E=-3.520396D-01
              MO Center=  1.0D-01,  1.6D-01,  2.0D-03, r^2= 1.3D+01
   Bfn.  Coefficient  Atom+Function         Bfn.  Coefficient  Atom+Function  
  ----- ------------  ---------------      ----- ------------  ---------------
    58     -0.158321   7 C  py               84      0.154025  10 C  px        

 Vector   67  Occ=2.000000D+00  E=-3.557500D-01
              MO Center=  1.2D-01,  1.9D-01,  2.0D-03, r^2= 1.3D+01
   Bfn.  Coefficient  Atom+Function         Bfn.  Coefficient  Atom+Function  
  ----- ------------  ---------------      ----- ------------  ---------------
    13     -0.151838   2 C  py        

 Vector   68  Occ=2.000000D+00  E=-3.403890D-01
              MO Center=  6.9D-01,  1.0D+00,  3.2D-03, r^2= 1.2D+01
   Bfn.  Coefficient  Atom+Function         Bfn.  Coefficient  Atom+Function  
  ----- ------------  ---------------      ----- ------------  ---------------
    75      0.201714   9 C  px               66     -0.160526   8 C  px        
    67      0.156223   8 C  py        

 Vector   69  Occ=2.000000D+00  E=-3.142414D-01
              MO Center= -1.1D-01, -1.4D-01,  1.6D-03, r^2= 1.0D+01
   Bfn.  Coefficient  Atom+Function         Bfn.  Coefficient  Atom+Function  
  ----- ------------  ---------------      ----- ------------  ---------------
   122      0.181652  14 C  pz              185      0.181644  21 C  pz        
   113      0.165256  13 C  pz              194      0.165239  22 C  pz        
    14     -0.155741   2 C  pz                5     -0.155721   1 C  pz        

 Vector   70  Occ=2.000000D+00  E=-3.922298D-01
              MO Center=  1.2D+00,  1.7D+00,  4.3D-03, r^2= 8.3D+00
   Bfn.  Coefficient  Atom+Function         Bfn.  Coefficient  Atom+Function  
  ----- ------------  ---------------      ----- ------------  ---------------
    68     -0.201414   8 C  pz               77      0.201323   9 C  pz        
    66     -0.150108   8 C  px        

 Vector   71  Occ=2.000000D+00  E=-3.118060D-01
              MO Center=  1.3D-01,  2.0D-01,  2.1D-03, r^2= 1.1D+01
   Bfn.  Coefficient  Atom+Function         Bfn.  Coefficient  Atom+Function  
  ----- ------------  ---------------      ----- ------------  ---------------
    49      0.154715   6 C  py               85     -0.150024  10 C  py        

 Vector   72  Occ=2.000000D+00  E=-2.866660D-01
              MO Center= -3.7D-01, -5.1D-01,  1.0D-03, r^2= 1.1D+01
   Bfn.  Coefficient  Atom+Function         Bfn.  Coefficient  Atom+Function  
  ----- ------------  ---------------      ----- ------------  ---------------
   158      0.226158  18 C  pz              149      0.226134  17 C  pz        
   162      0.176805  18 C  pz              153      0.176797  17 C  pz        
    95      0.160359  11 C  pz              212      0.160342  24 C  pz        

 Vector   73  Occ=2.000000D+00  E=-3.135192D-01
              MO Center= -1.7D-02, -7.0D-03,  1.8D-03, r^2= 1.3D+01
   Bfn.  Coefficient  Atom+Function         Bfn.  Coefficient  Atom+Function  
  ----- ------------  ---------------      ----- ------------  ---------------
   140     -0.166573  16 C  pz              167      0.166550  19 C  pz        
   131     -0.160093  15 C  pz              176      0.160086  20 C  pz        

 Vector   74  Occ=2.000000D+00  E=-2.438640D-01
              MO Center=  1.8D-01,  2.8D-01,  2.2D-03, r^2= 9.2D+00
   Bfn.  Coefficient  Atom+Function         Bfn.  Coefficient  Atom+Function  
  ----- ------------  ---------------      ----- ------------  ---------------
    23      0.238269   3 C  pz               50     -0.238262   6 C  pz        
    95     -0.190543  11 C  pz              212      0.190505  24 C  pz        
    27      0.186064   3 C  pz               54     -0.186045   6 C  pz        
    99     -0.159277  11 C  pz              216      0.159241  24 C  pz        

 Vector   75  Occ=2.000000D+00  E=-3.085079D-01
              MO Center=  1.8D-01,  2.8D-01,  2.2D-03, r^2= 1.1D+01
   Bfn.  Coefficient  Atom+Function         Bfn.  Coefficient  Atom+Function  
  ----- ------------  ---------------      ----- ------------  ---------------
    12     -0.156921   2 C  px        

 Vector   76  Occ=2.000000D+00  E=-2.510129D-01
              MO Center= -1.2D-01, -1.5D-01,  1.6D-03, r^2= 1.0D+01
   Bfn.  Coefficient  Atom+Function         Bfn.  Coefficient  Atom+Function  
  ----- ------------  ---------------      ----- ------------  ---------------
    14      0.181729   2 C  pz                5      0.181696   1 C  pz        
   131      0.173288  15 C  pz              176      0.173278  20 C  pz        
    41     -0.171877   5 C  pz               32     -0.171875   4 C  pz        
   104     -0.159231  12 C  pz              203     -0.159205  23 C  pz        
   122      0.150845  14 C  pz              185      0.150839  21 C  pz        

 Vector   77  Occ=2.000000D+00  E=-2.117259D-01
              MO Center= -5.4D-01, -7.5D-01,  6.9D-04, r^2= 1.1D+01
   Bfn.  Coefficient  Atom+Function         Bfn.  Coefficient  Atom+Function  
  ----- ------------  ---------------      ----- ------------  ---------------
   149      0.206821  17 C  pz              158      0.206820  18 C  pz        
   162      0.182623  18 C  pz              153      0.182616  17 C  pz        
   113      0.165010  13 C  pz              194      0.164994  22 C  pz        

 Vector   78  Occ=2.000000D+00  E=-1.853209D-01
              MO Center=  2.2D-02,  4.8D-02,  1.8D-03, r^2= 1.1D+01
   Bfn.  Coefficient  Atom+Function         Bfn.  Coefficient  Atom+Function  
  ----- ------------  ---------------      ----- ------------  ---------------
   104     -0.187298  12 C  pz              203      0.187273  23 C  pz        
    86      0.181382  10 C  pz               59     -0.181326   7 C  pz        
   108     -0.172614  12 C  pz              207      0.172592  23 C  pz        
    90      0.169349  10 C  pz               63     -0.169322   7 C  pz        
   122      0.164988  14 C  pz              185     -0.164975  21 C  pz        

 Vector   79  Occ=2.000000D+00  E=-2.486835D-01
              MO Center= -1.8D-01, -2.4D-01,  1.4D-03, r^2= 9.5D+00
   Bfn.  Coefficient  Atom+Function         Bfn.  Coefficient  Atom+Function  
  ----- ------------  ---------------      ----- ------------  ---------------
   122      0.171790  14 C  pz              185     -0.171785  21 C  pz        
   140     -0.160065  16 C  pz              167      0.160065  19 C  pz        
   126      0.151479  14 C  pz              189     -0.151473  21 C  pz        

 Vector   80  Occ=0.000000D+00  E=-2.968167D-02
              MO Center= -5.7D-01, -8.0D-01,  6.1D-04, r^2= 1.0D+01
   Bfn.  Coefficient  Atom+Function         Bfn.  Coefficient  Atom+Function  
  ----- ------------  ---------------      ----- ------------  ---------------
   162      0.296216  18 C  pz              153     -0.296214  17 C  pz        
   158      0.228583  18 C  pz              149     -0.228582  17 C  pz        
    99      0.204341  11 C  pz              216     -0.204316  24 C  pz        
   117     -0.196600  13 C  pz              198      0.196598  22 C  pz        
    36      0.195765   4 C  pz               45     -0.195763   5 C  pz        

 Vector   81  Occ=0.000000D+00  E=-5.529449D-02
              MO Center= -2.8D-02, -2.3D-02,  1.7D-03, r^2= 1.2D+01
   Bfn.  Coefficient  Atom+Function         Bfn.  Coefficient  Atom+Function  
  ----- ------------  ---------------      ----- ------------  ---------------
   108     -0.236487  12 C  pz              207     -0.236435  23 C  pz        
   126      0.211083  14 C  pz              189      0.211058  21 C  pz        
    90      0.199195  10 C  pz               63      0.199021   7 C  pz        
   104     -0.197667  12 C  pz              203     -0.197635  23 C  pz        
    86      0.184689  10 C  pz               59      0.184622   7 C  pz        

 Vector   82  Occ=0.000000D+00  E=-3.273199D-03
              MO Center=  7.9D-02,  1.3D-01,  2.0D-03, r^2= 8.7D+00
   Bfn.  Coefficient  Atom+Function         Bfn.  Coefficient  Atom+Function  
  ----- ------------  ---------------      ----- ------------  ---------------
    27     -0.380802   3 C  pz               54     -0.380629   6 C  pz        
    23     -0.282340   3 C  pz               50     -0.282321   6 C  pz        
    99     -0.245689  11 C  pz              216     -0.245607  24 C  pz        
   135     -0.210903  15 C  pz              180     -0.210880  20 C  pz        
   108      0.185704  12 C  pz              207      0.185655  23 C  pz        

 Vector   83  Occ=0.000000D+00  E= 8.717833D-03
              MO Center= -1.8D-01, -2.4D-01,  1.4D-03, r^2= 1.1D+01
   Bfn.  Coefficient  Atom+Function         Bfn.  Coefficient  Atom+Function  
  ----- ------------  ---------------      ----- ------------  ---------------
   135      0.290594  15 C  pz              180     -0.290586  20 C  pz        
    18      0.259739   2 C  pz                9     -0.259722   1 C  pz        
    45      0.242675   5 C  pz               36     -0.242671   4 C  pz        
   108      0.239920  12 C  pz              207     -0.239890  23 C  pz        
   126     -0.233080  14 C  pz              189      0.233046  21 C  pz        

 Vector   84  Occ=0.000000D+00  E= 9.227704D-02
              MO Center=  7.3D-02,  1.2D-01,  1.9D-03, r^2= 1.4D+01
   Bfn.  Coefficient  Atom+Function         Bfn.  Coefficient  Atom+Function  
  ----- ------------  ---------------      ----- ------------  ---------------
   171      0.334949  19 C  pz              144      0.334923  16 C  pz        
   222     -0.334015  27 H  s               226      0.334004  29 H  s         
   180     -0.325013  20 C  pz              135     -0.325007  15 C  pz        
   216      0.291928  24 C  pz               99      0.291860  11 C  pz        
   220      0.262764  26 H  s               224     -0.262763  28 H  s         

 Vector   85  Occ=0.000000D+00  E= 8.068366D-03
              MO Center= -1.1D-01, -1.4D-01,  1.6D-03, r^2= 1.1D+01
   Bfn.  Coefficient  Atom+Function         Bfn.  Coefficient  Atom+Function  
  ----- ------------  ---------------      ----- ------------  ---------------
   144      0.294379  16 C  pz              171      0.294352  19 C  pz        
   117      0.292546  13 C  pz              198      0.292499  22 C  pz        
    90      0.253069  10 C  pz               63      0.252891   7 C  pz        
   189     -0.219370  21 C  pz              126     -0.219364  14 C  pz        
   140      0.206509  16 C  pz              167      0.206501  19 C  pz        

 Vector   86  Occ=0.000000D+00  E= 8.676716D-02
              MO Center=  5.8D-02,  9.9D-02,  1.9D-03, r^2= 1.2D+01
   Bfn.  Coefficient  Atom+Function         Bfn.  Coefficient  Atom+Function  
  ----- ------------  ---------------      ----- ------------  ---------------
    78     -0.394936   9 C  s                69     -0.394936   8 C  s         
   126     -0.366949  14 C  pz              189      0.366936  21 C  pz        
   117      0.333856  13 C  pz              198     -0.333804  22 C  pz        
   224      0.284835  28 H  s               220      0.284833  26 H  s         
   108     -0.276112  12 C  pz              207      0.276053  23 C  pz        

 Vector   87  Occ=0.000000D+00  E= 5.635743D-02
              MO Center= -3.0D-01, -4.2D-01,  1.2D-03, r^2= 1.2D+01
   Bfn.  Coefficient  Atom+Function         Bfn.  Coefficient  Atom+Function  
  ----- ------------  ---------------      ----- ------------  ---------------
   162      0.403061  18 C  pz              153     -0.403059  17 C  pz        
    99     -0.302230  11 C  pz              216      0.302182  24 C  pz        
   158      0.251146  18 C  pz              149     -0.251146  17 C  pz        
   224      0.234171  28 H  s               220      0.234170  26 H  s         
    90      0.220171  10 C  pz               63     -0.220107   7 C  pz        

 Vector   88  Occ=0.000000D+00  E= 1.084074D-01
              MO Center=  2.3D-01,  3.5D-01,  2.3D-03, r^2= 2.4D+01
   Bfn.  Coefficient  Atom+Function         Bfn.  Coefficient  Atom+Function  
  ----- ------------  ---------------      ----- ------------  ---------------
    69      0.812669   8 C  s                78      0.812657   9 C  s         
   222     -0.690799  27 H  s               226     -0.690799  29 H  s         
   236      0.621333  34 H  s               238      0.621320  35 H  s         
   234      0.482398  33 H  s               240      0.482349  36 H  s         
   220     -0.418300  26 H  s               224     -0.418286  28 H  s         

 Vector   89  Occ=0.000000D+00  E= 1.501857D-01
              MO Center=  1.4D+00,  2.1D+00,  4.7D-03, r^2= 1.4D+01
   Bfn.  Coefficient  Atom+Function         Bfn.  Coefficient  Atom+Function  
  ----- ------------  ---------------      ----- ------------  ---------------
    69      1.160233   8 C  s                78     -1.160228   9 C  s         
   224      1.112786  28 H  s               220     -1.112754  26 H  s         
   244      0.408896  38 H  s               230     -0.408893  31 H  s         
    72      0.365637   8 C  pz               81      0.365496   9 C  pz        
   234      0.345734  33 H  s               240     -0.345710  36 H  s         

 Vector   90  Occ=0.000000D+00  E= 1.107930D-01
              MO Center= -1.1D-02,  1.8D-03,  1.8D-03, r^2= 2.5D+01
   Bfn.  Coefficient  Atom+Function         Bfn.  Coefficient  Atom+Function  
  ----- ------------  ---------------      ----- ------------  ---------------
   244      0.703113  38 H  s               230     -0.703111  31 H  s         
   242      0.694036  37 H  s               232     -0.694004  32 H  s         
   228     -0.533682  30 H  s               218      0.533627  25 H  s         
   240      0.515321  36 H  s               234     -0.515260  33 H  s         
   105      0.434322  12 C  s               204     -0.434275  23 C  s         

 Vector   91  Occ=0.000000D+00  E= 9.717789D-02
              MO Center= -1.2D-02, -6.8D-04,  1.8D-03, r^2= 2.4D+01
   Bfn.  Coefficient  Atom+Function         Bfn.  Coefficient  Atom+Function  
  ----- ------------  ---------------      ----- ------------  ---------------
   218      0.492281  25 H  s               228      0.492278  30 H  s         
   234      0.486278  33 H  s               240      0.486271  36 H  s         
   236      0.486077  34 H  s               238      0.486074  35 H  s         
   242      0.477766  37 H  s               232      0.477757  32 H  s         
   230      0.472380  31 H  s               244      0.472369  38 H  s         

 Vector   92  Occ=0.000000D+00  E= 1.227148D-01
              MO Center=  1.5D-01,  2.3D-01,  2.1D-03, r^2= 2.3D+01
   Bfn.  Coefficient  Atom+Function         Bfn.  Coefficient  Atom+Function  
  ----- ------------  ---------------      ----- ------------  ---------------
    78      0.797839   9 C  s                69      0.797834   8 C  s         
   244      0.665204  38 H  s               230      0.665177  31 H  s         
   238     -0.655886  35 H  s               236     -0.655864  34 H  s         
   150      0.536261  17 C  s               159      0.536225  18 C  s         
   224     -0.473390  28 H  s               220     -0.473386  26 H  s         

 Vector   93  Occ=0.000000D+00  E= 1.288268D-01
              MO Center= -5.3D-02, -5.8D-02,  1.7D-03, r^2= 2.5D+01
   Bfn.  Coefficient  Atom+Function         Bfn.  Coefficient  Atom+Function  
  ----- ------------  ---------------      ----- ------------  ---------------
   228     -0.747526  30 H  s               218      0.747511  25 H  s         
   234      0.743925  33 H  s               240     -0.743915  36 H  s         
   177      0.550913  20 C  s               132     -0.550912  15 C  s         
   186      0.537669  21 C  s               123     -0.537665  14 C  s         
   105      0.488105  12 C  s               204     -0.488086  23 C  s         

 Vector   94  Occ=0.000000D+00  E= 1.438162D-01
              MO Center= -6.3D-01, -8.9D-01,  5.0D-04, r^2= 2.2D+01
   Bfn.  Coefficient  Atom+Function         Bfn.  Coefficient  Atom+Function  
  ----- ------------  ---------------      ----- ------------  ---------------
   232     -0.724069  32 H  s               242     -0.724063  37 H  s         
   236      0.652523  34 H  s               238      0.652492  35 H  s         
   159     -0.608993  18 C  s               150     -0.608951  17 C  s         
   123      0.584561  14 C  s               186      0.584532  21 C  s         
   218      0.533189  25 H  s               228      0.533172  30 H  s         

 Vector   95  Occ=0.000000D+00  E= 1.692083D-01
              MO Center= -2.2D-01, -3.0D-01,  1.3D-03, r^2= 2.4D+01
   Bfn.  Coefficient  Atom+Function         Bfn.  Coefficient  Atom+Function  
  ----- ------------  ---------------      ----- ------------  ---------------
    78      0.874624   9 C  s                69     -0.874622   8 C  s         
   236      0.788932  34 H  s               238     -0.788918  35 H  s         
   226     -0.702218  29 H  s               222      0.702211  27 H  s         
   242      0.694978  37 H  s               232     -0.694953  32 H  s         
   150     -0.658583  17 C  s               159      0.658562  18 C  s         

 Vector   96  Occ=0.000000D+00  E= 1.521520D-01
              MO Center=  6.7D-01,  9.7D-01,  3.2D-03, r^2= 2.2D+01
   Bfn.  Coefficient  Atom+Function         Bfn.  Coefficient  Atom+Function  
  ----- ------------  ---------------      ----- ------------  ---------------
   222      0.684470  27 H  s               226     -0.684444  29 H  s         
   244     -0.564019  38 H  s               230      0.564016  31 H  s         
   220     -0.540295  26 H  s               224      0.540287  28 H  s         
   234     -0.482284  33 H  s               240      0.482280  36 H  s         
   236     -0.455199  34 H  s               238      0.455183  35 H  s         

 Vector   97  Occ=0.000000D+00  E= 1.610756D-01
              MO Center=  1.8D-01,  2.7D-01,  2.2D-03, r^2= 1.7D+01
   Bfn.  Coefficient  Atom+Function         Bfn.  Coefficient  Atom+Function  
  ----- ------------  ---------------      ----- ------------  ---------------
   222      0.584338  27 H  s               226      0.584332  29 H  s         
   230     -0.520764  31 H  s               244     -0.520739  38 H  s         
   234      0.426216  33 H  s               240      0.426175  36 H  s         
   204      0.406875  23 C  s               105      0.406848  12 C  s         
   224     -0.374937  28 H  s               220     -0.374928  26 H  s         

 Vector   98  Occ=0.000000D+00  E= 1.886407D-01
              MO Center=  2.7D-01,  4.1D-01,  2.4D-03, r^2= 1.9D+01
   Bfn.  Coefficient  Atom+Function         Bfn.  Coefficient  Atom+Function  
  ----- ------------  ---------------      ----- ------------  ---------------
   236     -0.695168  34 H  s               238      0.695131  35 H  s         
   226     -0.679359  29 H  s               222      0.679352  27 H  s         
    70     -0.484118   8 C  px              218     -0.480942  25 H  s         
   228      0.480792  30 H  s               161      0.422072  18 C  py        
    80      0.416171   9 C  py              234      0.408944  33 H  s         

 Vector   99  Occ=0.000000D+00  E= 1.727932D-01
              MO Center= -6.6D-02, -7.8D-02,  1.7D-03, r^2= 2.4D+01
   Bfn.  Coefficient  Atom+Function         Bfn.  Coefficient  Atom+Function  
  ----- ------------  ---------------      ----- ------------  ---------------
   240      0.778749  36 H  s               234      0.778698  33 H  s         
   228      0.731217  30 H  s               218      0.731190  25 H  s         
   132     -0.684786  15 C  s               177     -0.684698  20 C  s         
   213     -0.651512  24 C  s                96     -0.651442  11 C  s         
   244     -0.586901  38 H  s               230     -0.586886  31 H  s         

 Vector  100  Occ=0.000000D+00  E= 1.922344D-01
              MO Center=  4.1D-02,  8.0D-02,  1.3D-03, r^2= 1.4D+01
   Bfn.  Coefficient  Atom+Function         Bfn.  Coefficient  Atom+Function  
  ----- ------------  ---------------      ----- ------------  ---------------
   228     -0.440807  30 H  s               218      0.438096  25 H  s         
   238     -0.431643  35 H  s               236      0.430916  34 H  s         
   117      0.391309  13 C  pz              198      0.391169  22 C  pz        
   224      0.340453  28 H  s               220     -0.338793  26 H  s         
    78     -0.336261   9 C  s                69      0.334784   8 C  s         

 Vector  101  Occ=0.000000D+00  E= 2.323045D-01
              MO Center=  1.4D+00,  2.1D+00,  4.8D-03, r^2= 9.4D+00
   Bfn.  Coefficient  Atom+Function         Bfn.  Coefficient  Atom+Function  
  ----- ------------  ---------------      ----- ------------  ---------------
    69     -1.336223   8 C  s                78      1.336203   9 C  s         
    70      0.930164   8 C  px               80     -0.817225   9 C  py        
    72      0.663857   8 C  pz               81      0.662917   9 C  pz        
   206      0.659552  23 C  py              106     -0.655763  12 C  px        
   215      0.530694  24 C  py              230     -0.526561  31 H  s         

 Vector  102  Occ=0.000000D+00  E= 2.266337D-01
              MO Center=  5.6D-01,  8.2D-01,  3.0D-03, r^2= 1.1D+01
   Bfn.  Coefficient  Atom+Function         Bfn.  Coefficient  Atom+Function  
  ----- ------------  ---------------      ----- ------------  ---------------
    87     -1.363767  10 C  s                60     -1.363728   7 C  s         
   195     -1.179052  22 C  s               114     -1.179035  13 C  s         
   168     -1.075168  19 C  s               141     -1.075136  16 C  s         
    71     -0.603249   8 C  py               79     -0.586191   9 C  px        
    78      0.529867   9 C  s                69      0.529853   8 C  s         

 Vector  103  Occ=0.000000D+00  E= 1.921693D-01
              MO Center= -5.5D-02, -6.6D-02,  2.2D-03, r^2= 2.2D+01
   Bfn.  Coefficient  Atom+Function         Bfn.  Coefficient  Atom+Function  
  ----- ------------  ---------------      ----- ------------  ---------------
   244     -0.810493  38 H  s               230     -0.809050  31 H  s         
   232      0.800949  32 H  s               242      0.800729  37 H  s         
   234     -0.625612  33 H  s               240     -0.624759  36 H  s         
   218      0.509427  25 H  s               228      0.507182  30 H  s         
   106     -0.473431  12 C  px              204      0.435427  23 C  s         

 Vector  104  Occ=0.000000D+00  E= 2.113439D-01
              MO Center= -3.8D-01, -5.3D-01,  1.0D-03, r^2= 2.4D+01
   Bfn.  Coefficient  Atom+Function         Bfn.  Coefficient  Atom+Function  
  ----- ------------  ---------------      ----- ------------  ---------------
   238     -0.776700  35 H  s               236      0.776686  34 H  s         
   240      0.763412  36 H  s               234     -0.763399  33 H  s         
   242     -0.713602  37 H  s               232      0.713587  32 H  s         
    43      0.687025   5 C  px               35     -0.625764   4 C  py        
   161     -0.583301  18 C  py               70     -0.577928   8 C  px        

 Vector  105  Occ=0.000000D+00  E= 2.035601D-01
              MO Center=  1.2D+00,  1.7D+00,  4.2D-03, r^2= 1.3D+01
   Bfn.  Coefficient  Atom+Function         Bfn.  Coefficient  Atom+Function  
  ----- ------------  ---------------      ----- ------------  ---------------
   220      0.886705  26 H  s               224      0.886699  28 H  s         
    81      0.709187   9 C  pz               72     -0.708811   8 C  pz        
   226     -0.620089  29 H  s               222     -0.620071  27 H  s         
    96     -0.556588  11 C  s               213     -0.556564  24 C  s         
   228      0.373926  30 H  s               218      0.373911  25 H  s         

 Vector  106  Occ=0.000000D+00  E= 2.574116D-01
              MO Center=  2.1D-01,  3.1D-01,  2.3D-03, r^2= 1.4D+01
   Bfn.  Coefficient  Atom+Function         Bfn.  Coefficient  Atom+Function  
  ----- ------------  ---------------      ----- ------------  ---------------
   141     -1.337293  16 C  s               168     -1.337115  19 C  s         
    62      0.913797   7 C  py               88      0.797669  10 C  px        
    71      0.746945   8 C  py              123      0.740895  14 C  s         
   186      0.740826  21 C  s                78     -0.716935   9 C  s         
    69     -0.716866   8 C  s                79      0.701250   9 C  px        

 Vector  107  Occ=0.000000D+00  E= 2.722647D-01
              MO Center= -1.2D-01, -1.6D-01,  1.5D-03, r^2= 8.1D+00
   Bfn.  Coefficient  Atom+Function         Bfn.  Coefficient  Atom+Function  
  ----- ------------  ---------------      ----- ------------  ---------------
    36     -0.434650   4 C  pz               45      0.434414   5 C  pz        
    27      0.409733   3 C  pz               54     -0.409663   6 C  pz        
    18     -0.380051   2 C  pz                9      0.379909   1 C  pz        
    69      0.360187   8 C  s                78      0.360170   9 C  s         
    89     -0.330507  10 C  py               96      0.328592  11 C  s         

 Vector  108  Occ=0.000000D+00  E= 2.859161D-01
              MO Center= -1.2D-01, -1.6D-01,  1.5D-03, r^2= 1.2D+01
   Bfn.  Coefficient  Atom+Function         Bfn.  Coefficient  Atom+Function  
  ----- ------------  ---------------      ----- ------------  ---------------
   168     -1.137455  19 C  s               141     -1.137057  16 C  s         
    87      0.902494  10 C  s                60      0.901338   7 C  s         
    51     -0.895053   6 C  s                24     -0.894565   3 C  s         
   150      0.881274  17 C  s               159      0.879216  18 C  s         
   143      0.709325  16 C  py              152      0.706682  17 C  py        

 Vector  109  Occ=0.000000D+00  E= 2.914024D-01
              MO Center=  2.7D-01,  4.0D-01,  2.4D-03, r^2= 1.4D+01
   Bfn.  Coefficient  Atom+Function         Bfn.  Coefficient  Atom+Function  
  ----- ------------  ---------------      ----- ------------  ---------------
   114     -1.118429  13 C  s               195      1.118349  22 C  s         
   105      1.007299  12 C  s               204     -1.007288  23 C  s         
   168      0.885500  19 C  s               141     -0.885337  16 C  s         
   186     -0.851351  21 C  s               123      0.851068  14 C  s         
   196      0.815048  22 C  px               60      0.736632   7 C  s         

 Vector  110  Occ=0.000000D+00  E= 2.602004D-01
              MO Center=  7.8D-01,  1.1D+00,  3.4D-03, r^2= 1.2D+01
   Bfn.  Coefficient  Atom+Function         Bfn.  Coefficient  Atom+Function  
  ----- ------------  ---------------      ----- ------------  ---------------
   195      1.171970  22 C  s               114     -1.171789  13 C  s         
    71      0.899068   8 C  py               87     -0.883595  10 C  s         
    60      0.883536   7 C  s                79     -0.854235   9 C  px        
   177     -0.552685  20 C  s               168      0.552640  19 C  s         
   132      0.552611  15 C  s               141     -0.552398  16 C  s         

 Vector  111  Occ=0.000000D+00  E= 2.862538D-01
              MO Center= -8.2D-01, -1.1D+00,  1.7D-04, r^2= 1.1D+01
   Bfn.  Coefficient  Atom+Function         Bfn.  Coefficient  Atom+Function  
  ----- ------------  ---------------      ----- ------------  ---------------
   132     -1.157219  15 C  s               177      1.156239  20 C  s         
   125     -0.822062  14 C  py              188      0.703334  21 C  py        
   197      0.700657  22 C  py              160     -0.696805  18 C  px        
   159      0.695864  18 C  s               150     -0.693066  17 C  s         
   115     -0.645265  13 C  px              152      0.641646  17 C  py        

 Vector  112  Occ=0.000000D+00  E= 3.084598D-01
              MO Center= -3.8D-01, -5.3D-01,  1.0D-03, r^2= 1.4D+01
   Bfn.  Coefficient  Atom+Function         Bfn.  Coefficient  Atom+Function  
  ----- ------------  ---------------      ----- ------------  ---------------
   204      1.076240  23 C  s               105      1.076105  12 C  s         
   215      0.932540  24 C  py              132     -0.868917  15 C  s         
   177     -0.868734  20 C  s                97      0.841868  11 C  px        
   125     -0.782916  14 C  py              106      0.773686  12 C  px        
   206      0.720219  23 C  py              123      0.720121  14 C  s         

 Vector  113  Occ=0.000000D+00  E= 2.965673D-01
              MO Center= -4.7D-02, -4.9D-02,  1.7D-03, r^2= 1.2D+01
   Bfn.  Coefficient  Atom+Function         Bfn.  Coefficient  Atom+Function  
  ----- ------------  ---------------      ----- ------------  ---------------
    87      0.694420  10 C  s                60      0.694275   7 C  s         
    97     -0.633281  11 C  px              179      0.598823  20 C  py        
    51      0.590423   6 C  s                24      0.590420   3 C  s         
   105     -0.575481  12 C  s               204     -0.575298  23 C  s         
   234      0.575280  33 H  s               240      0.575247  36 H  s         

 Vector  114  Occ=0.000000D+00  E= 2.796309D-01
              MO Center= -6.9D-01, -9.7D-01,  3.6D-04, r^2= 1.2D+01
   Bfn.  Coefficient  Atom+Function         Bfn.  Coefficient  Atom+Function  
  ----- ------------  ---------------      ----- ------------  ---------------
    33      1.021021   4 C  s                42     -1.020913   5 C  s         
   123      0.903351  14 C  s               186     -0.903305  21 C  s         
   151     -0.870758  17 C  px              178      0.825433  20 C  px        
   134     -0.810049  15 C  py              161      0.741802  18 C  py        
   187      0.710261  21 C  px              159      0.682060  18 C  s         

 Vector  115  Occ=0.000000D+00  E= 3.223937D-01
              MO Center= -2.8D-01, -3.8D-01,  1.2D-03, r^2= 1.2D+01
   Bfn.  Coefficient  Atom+Function         Bfn.  Coefficient  Atom+Function  
  ----- ------------  ---------------      ----- ------------  ---------------
   170      1.112633  19 C  py              142      1.083054  16 C  px        
    42     -1.022699   5 C  s                33     -1.022520   4 C  s         
   115      0.949856  13 C  px               89     -0.859534  10 C  py        
   123      0.849276  14 C  s               186      0.849220  21 C  s         
   177      0.828141  20 C  s               132      0.827902  15 C  s         

 Vector  116  Occ=0.000000D+00  E= 3.574660D-01
              MO Center=  3.5D-01,  5.1D-01,  2.5D-03, r^2= 1.4D+01
   Bfn.  Coefficient  Atom+Function         Bfn.  Coefficient  Atom+Function  
  ----- ------------  ---------------      ----- ------------  ---------------
   116     -1.255040  13 C  py              114     -1.237225  13 C  s         
   195     -1.236766  22 C  s               107     -1.206855  12 C  py        
   196     -1.178125  22 C  px               96      1.083450  11 C  s         
   213      1.082593  24 C  s                51     -1.055422   6 C  s         
    24     -1.054810   3 C  s               204      1.022923  23 C  s         

 Vector  117  Occ=0.000000D+00  E= 3.337583D-01
              MO Center=  4.6D-01,  6.7D-01,  2.7D-03, r^2= 1.3D+01
   Bfn.  Coefficient  Atom+Function         Bfn.  Coefficient  Atom+Function  
  ----- ------------  ---------------      ----- ------------  ---------------
    87      1.441273  10 C  s                60     -1.441262   7 C  s         
    69      1.149374   8 C  s                78     -1.149305   9 C  s         
    71     -1.088055   8 C  py               62     -1.010149   7 C  py        
   204      0.988063  23 C  s               105     -0.988040  12 C  s         
   160     -0.979396  18 C  px               79      0.955345   9 C  px        

 Vector  118  Occ=0.000000D+00  E= 3.633188D-01
              MO Center= -5.3D-01, -7.3D-01,  7.1D-04, r^2= 1.3D+01
   Bfn.  Coefficient  Atom+Function         Bfn.  Coefficient  Atom+Function  
  ----- ------------  ---------------      ----- ------------  ---------------
   195     -1.390864  22 C  s               114     -1.390692  13 C  s         
    24     -1.240500   3 C  s                51     -1.240403   6 C  s         
   143     -1.137515  16 C  py              150     -1.137331  17 C  s         
   159     -1.137198  18 C  s               169     -1.091101  19 C  px        
   188      1.057518  21 C  py              115      0.919830  13 C  px        

 Vector  119  Occ=0.000000D+00  E= 3.552383D-01
              MO Center= -3.6D-02, -3.5D-02,  1.7D-03, r^2= 1.3D+01
   Bfn.  Coefficient  Atom+Function         Bfn.  Coefficient  Atom+Function  
  ----- ------------  ---------------      ----- ------------  ---------------
   213     -1.475962  24 C  s                96      1.475258  11 C  s         
   150     -1.120930  17 C  s               159      1.120772  18 C  s         
    42     -0.974653   5 C  s                33      0.974524   4 C  s         
    24      0.842480   3 C  s                51     -0.841877   6 C  s         
   151     -0.822090  17 C  px              206      0.814517  23 C  py        

 Vector  120  Occ=0.000000D+00  E= 3.846484D-01
              MO Center=  4.1D-02,  7.6D-02,  1.9D-03, r^2= 1.4D+01
   Bfn.  Coefficient  Atom+Function         Bfn.  Coefficient  Atom+Function  
  ----- ------------  ---------------      ----- ------------  ---------------
   168      1.355450  19 C  s               141     -1.355437  16 C  s         
    88     -1.216549  10 C  px                6     -1.157386   1 C  s         
    15      1.157303   2 C  s                62      1.141709   7 C  py        
     7      1.133999   1 C  px              178      1.098261  20 C  px        
   142      0.980731  16 C  px               97     -0.959755  11 C  px        

 Vector  121  Occ=0.000000D+00  E= 3.897336D-01
              MO Center= -5.8D-02, -6.6D-02,  1.7D-03, r^2= 1.3D+01
   Bfn.  Coefficient  Atom+Function         Bfn.  Coefficient  Atom+Function  
  ----- ------------  ---------------      ----- ------------  ---------------
     6      1.336434   1 C  s                15      1.336355   2 C  s         
    42     -1.238011   5 C  s                33     -1.238000   4 C  s         
   213     -1.146429  24 C  s                96     -1.146421  11 C  s         
   177      1.113304  20 C  s               132      1.113266  15 C  s         
   186     -1.099239  21 C  s               123     -1.099237  14 C  s         

 Vector  122  Occ=0.000000D+00  E= 4.242720D-01
              MO Center=  3.5D-01,  5.2D-01,  2.5D-03, r^2= 9.7D+00
   Bfn.  Coefficient  Atom+Function         Bfn.  Coefficient  Atom+Function  
  ----- ------------  ---------------      ----- ------------  ---------------
    15     -1.897689   2 C  s                 6      1.897587   1 C  s         
    87      1.676064  10 C  s                60     -1.675983   7 C  s         
     8      1.265889   1 C  py               42      1.232639   5 C  s         
    33     -1.232580   4 C  s                16     -1.067489   2 C  px        
    89     -0.963635  10 C  py              186     -0.958214  21 C  s         

 Vector  123  Occ=0.000000D+00  E= 4.549266D-01
              MO Center= -2.6D-01, -3.6D-01,  1.3D-03, r^2= 1.1D+01
   Bfn.  Coefficient  Atom+Function         Bfn.  Coefficient  Atom+Function  
  ----- ------------  ---------------      ----- ------------  ---------------
   152     -1.376645  17 C  py               24      1.372800   3 C  s         
    51     -1.372727   6 C  s               160      1.299125  18 C  px        
    96     -1.267189  11 C  s               213      1.267126  24 C  s         
   197      1.190108  22 C  py               61     -1.189198   7 C  px        
   143     -1.175871  16 C  py              115     -1.174429  13 C  px        

 Vector  124  Occ=0.000000D+00  E= 4.609109D-01
              MO Center= -8.2D-02, -1.0D-01,  1.6D-03, r^2= 1.1D+01
   Bfn.  Coefficient  Atom+Function         Bfn.  Coefficient  Atom+Function  
  ----- ------------  ---------------      ----- ------------  ---------------
    24      2.169246   3 C  s                51     -2.169224   6 C  s         
    33     -1.616843   4 C  s                42      1.616817   5 C  s         
    16      1.352132   2 C  px                8     -1.261248   1 C  py        
    96     -1.145951  11 C  s               213      1.145885  24 C  s         
   196     -1.120307  22 C  px              116      1.073590  13 C  py        

 Vector  125  Occ=0.000000D+00  E= 4.802875D-01
              MO Center= -3.0D-01, -4.1D-01,  1.2D-03, r^2= 1.3D+01
   Bfn.  Coefficient  Atom+Function         Bfn.  Coefficient  Atom+Function  
  ----- ------------  ---------------      ----- ------------  ---------------
   141      1.617698  16 C  s               168     -1.617666  19 C  s         
   115      1.496085  13 C  px              188     -1.401220  21 C  py        
    97     -1.267588  11 C  px              114     -1.261743  13 C  s         
   195      1.261734  22 C  s               197     -1.259393  22 C  py        
   125      1.197206  14 C  py                6     -1.128979   1 C  s         

 Vector  126  Occ=0.000000D+00  E= 5.109223D-01
              MO Center= -1.9D-01, -2.5D-01,  1.4D-03, r^2= 1.2D+01
   Bfn.  Coefficient  Atom+Function         Bfn.  Coefficient  Atom+Function  
  ----- ------------  ---------------      ----- ------------  ---------------
    51     -1.710196   6 C  s                24     -1.710132   3 C  s         
   195      1.646779  22 C  s               114      1.646705  13 C  s         
   169     -1.404310  19 C  px              177      1.363713  20 C  s         
   132      1.363344  15 C  s                96      1.317757  11 C  s         
   213      1.317571  24 C  s               143     -1.306031  16 C  py        


 center of mass
 --------------
 x =  -0.03335745 y =  -0.01543514 z =   0.00332656

 moments of inertia (a.u.)
 ------------------
        5523.155607880056         -42.768072652217          65.225521123126
         -42.768072652217        5492.322275129218         -53.677098358440
          65.225521123126         -53.677098358440       10950.672173514908

     Multipole analysis of the density
     ---------------------------------

     L   x y z        total         alpha         beta         nuclear
     -   - - -        -----         -----         ----         -------
     0   0 0 0     -0.000000    -79.000000    -79.000000    158.000000

     1   1 0 0      0.163664      0.783856      0.783856     -1.404048
     1   0 1 0      0.233514     -1.422170     -1.422170      3.077854
     1   0 0 1      0.000338     -0.266619     -0.266619      0.533576

     2   2 0 0    -88.897125  -1539.807878  -1539.807878   2990.718632
     2   1 1 0      1.110100    -21.489349    -21.489349     44.088798
     2   1 0 1     -0.177763     16.986516     16.986516    -34.150794
     2   0 2 0    -88.080649  -1555.379935  -1555.379935   3022.679221
     2   0 1 1      0.152416    -14.092660    -14.092660     28.337736
     2   0 0 2   -105.685219    -64.745137    -64.745137     23.805055


 HESSIAN: the one electron contributions are done in       3.4s


 HESSIAN: 2-el 1st deriv. term done in                    64.0s


 HESSIAN: 2-el 2nd deriv. term done in                   135.2s

  stpr_wrt_fd_from_sq: overwrite of existing file:.//c24h10(1,2)h4.hess
 stpr_wrt_fd_dipole: overwrite of existing file.//c24h10(1,2)h4.fd_ddipole

 HESSIAN: the two electron contributions are done in     576.0s

                                NWChem CPHF Module
                                ------------------


  scftype          =     RHF 
  nclosed          =       79
  nopen            =        0
  variables        =    13035
  # of vectors     =      114
  tolerance        = 0.10D-03
  level shift      = 0.00D+00
  max iterations   =       50
  max subspace     =     1140

 WARNING: error on integrated density =  0.17D-06
 greater than required accuracy of  0.10D-06


Iterative solution of linear equations
  No. of variables    13035
  No. of equations      114
  Maximum subspace     1140
        Iterations       50
       Convergence  1.0D-04
        Start time   1604.7


   iter   nsub   residual    time
   ----  ------  --------  ---------
     1    114    8.99D-02    2621.8
     2    228    3.57D-02    3593.5
     3    342    1.56D-03    4562.4
     4    456    2.94D-05    5517.9
 HESSIAN: the CPHF contributions are done
  stpr_wrt_fd_from_sq: overwrite of existing file:.//c24h10(1,2)h4.hess
 stpr_wrt_fd_dipole: overwrite of existing file.//c24h10(1,2)h4.fd_ddipole
 HESSIAN: the Hessian is done


  Vibrational analysis via the FX method 

  See chapter 2 in "Molecular Vibrations" by Wilson, Decius and Cross

  Vib: Default input used 

  Nuclear Hessian passed symmetry test 



 ---------------------------- Atom information ----------------------------
     atom    #        X              Y              Z            mass
 --------------------------------------------------------------------------
    C        1  2.4159754D+00  1.0784449D+00  1.2751917D-02  1.2000000D+01
    C        2  1.5922524D-01  2.6601561D+00 -6.2437478D-04  1.2000000D+01
    C        3 -2.2657487D+00  1.5056310D+00  1.0140864D-01  1.2000000D+01
    C        4 -2.4994347D+00 -1.1880391D+00  7.3611676D-02  1.2000000D+01
    C        5 -2.9411903D-01 -2.7334702D+00 -7.2604778D-02  1.2000000D+01
    C        6  2.1582271D+00 -1.5947243D+00 -9.4829655D-02  1.2000000D+01
    C        7  4.8290829D+00  2.1629600D+00  2.0583530D-01  1.2000000D+01
    C        8  5.0479172D+00  4.9790291D+00  6.6699871D-01  1.2000000D+01
    C        9  2.9286722D+00  6.4662441D+00 -6.4372358D-01  1.2000000D+01
    C       10  3.5561498D-01  5.2988585D+00 -1.8831148D-01  1.2000000D+01
    C       11 -1.8411321D+00  6.7776648D+00 -1.2809603D-01  1.2000000D+01
    C       12 -4.2117555D+00  5.6824919D+00  7.7152401D-02  1.2000000D+01
    C       13 -4.4828044D+00  3.0378557D+00  1.6270143D-01  1.2000000D+01
    C       14 -6.9035386D+00  1.8289476D+00  2.7373911D-01  1.2000000D+01
    C       15 -7.1149550D+00 -7.3857030D-01  2.6746875D-01  1.2000000D+01
    C       16 -4.9267757D+00 -2.3261034D+00  1.4318193D-01  1.2000000D+01
    C       17 -5.1094105D+00 -4.9977729D+00  6.7405697D-02  1.2000000D+01
    C       18 -2.9847804D+00 -6.4866563D+00 -7.7395382D-02  1.2000000D+01
    C       19 -5.3563086D-01 -5.4033108D+00 -1.4770647D-01  1.2000000D+01
    C       20  1.7033841D+00 -6.9183121D+00 -2.7187501D-01  1.2000000D+01
    C       21  4.0447169D+00 -5.8435822D+00 -2.7284536D-01  1.2000000D+01
    C       22  4.3550184D+00 -3.1558625D+00 -1.5615924D-01  1.2000000D+01
    C       23  6.7483716D+00 -1.9989445D+00 -6.5100494D-02  1.2000000D+01
    C       24  6.9687313D+00  6.0268455D-01  1.4550291D-01  1.2000000D+01
    H       25  8.8267426D+00  1.4587451D+00  2.7748545D-01  1.0078250D+00
    H       26  4.9439525D+00  5.3204821D+00  2.7171757D+00  1.0078250D+00
    H       27  6.8967335D+00  5.6696973D+00  4.6121960D-02  1.0078250D+00
    H       28  3.2878843D+00  6.4889891D+00 -2.6933752D+00  1.0078250D+00
    H       29  2.9462675D+00  8.4385602D+00 -1.8991417D-02  1.0078250D+00
    H       30 -1.6701831D+00  8.8165154D+00 -2.5588612D-01  1.0078250D+00
    H       31 -5.8883996D+00  6.8594531D+00  1.3776167D-01  1.0078250D+00
    H       32 -8.5771511D+00  3.0097179D+00  3.4640699D-01  1.0078250D+00
    H       33 -8.9596013D+00 -1.6289179D+00  3.3842490D-01  1.0078250D+00
    H       34 -6.9688108D+00 -5.8581825D+00  1.2000982D-01  1.0078250D+00
    H       35 -3.1590942D+00 -8.5279369D+00 -1.3422099D-01  1.0078250D+00
    H       36  1.4959220D+00 -8.9559033D+00 -3.4707600D-01  1.0078250D+00
    H       37  5.7257443D+00 -7.0137743D+00 -3.4547904D-01  1.0078250D+00
    H       38  8.4268359D+00 -3.1733090D+00 -1.2570104D-01  1.0078250D+00
 --------------------------------------------------------------------------




          ----------------------------------------------------
          MASS-WEIGHTED NUCLEAR HESSIAN (Hartree/Bohr/Bohr/Kamu)
          ----------------------------------------------------


              1           2           3           4           5           6           7           8           9          10
   ----- ----- ----- ----- -----
    1   5.65242D+01
    2   1.76295D+00 5.53062D+01
    3   1.66231D+00 2.08487D+00 1.30298D+01
    4  -1.58969D+01 4.82783D+00-2.88673D-02 5.43208D+01
    5   4.02174D+00-1.26849D+01 3.79137D-02 9.67498D-01 5.75217D+01
    6  -5.23030D-02 5.44280D-03-5.08710D+00-1.33413D+00-2.18592D+00 1.30177D+01
    7  -3.46446D+00-1.78065D-01 9.35682D-02-2.08640D+01-3.55460D+00 6.26244D-01 5.65321D+01
    8   5.20554D-01 2.03098D+00-4.46839D-02-4.97095D+00-1.22711D+01 2.95042D-01 2.00218D-01 5.62906D+01
    9  -3.38842D-02 4.57631D-02 5.36509D-02 6.95621D-01-3.55447D-02-5.16836D+00-1.48816D+00-2.55674D-01 1.28838D+01
   10   5.88955D-01 7.05223D-01 5.60341D-02-1.13480D-01-3.02011D+00-3.48148D-03-9.98809D+00-9.18687D-01 1.37314D-01 5.69201D+01
   11   7.32307D-01-9.13010D-01 1.23245D-03-3.10831D+00-2.42676D+00 9.09570D-02-8.49009D-01-2.16969D+01-9.14156D-02 3.93611D-01
   12  -3.24395D-02-5.88479D-02-1.48079D-01 3.96259D-02 1.59441D-01-1.22306D-02 9.14773D-02-3.06875D-01-5.00283D+00-1.81022D+00
   13  -1.91817D-01-3.13664D+00-9.25648D-02-1.19924D+00 8.35443D-02 1.63281D-02 9.36350D-01 2.53215D+00 9.99393D-03-1.81817D+01
   14  -3.04836D+00-2.34788D+00-3.63950D-02 5.63118D-02 8.74880D-01-5.12027D-02 2.52948D+00-3.01014D+00-1.44253D-01 5.33135D+00
   15  -1.43292D-01-1.00373D-01-1.33477D-02 4.23708D-02 5.31445D-02-1.46339D-01 2.16164D-02-1.19150D-01-9.88312D-03 7.59570D-01
   16  -1.05374D+01-1.22154D+00-7.34269D-02 1.28155D+00 2.24304D+00 8.00270D-02-8.99068D-02-1.09283D+00-3.59947D-02-4.17429D+00
   17   1.94211D-01-2.25953D+01-7.22597D-01 1.54475D+00-2.71475D+00-7.59762D-02-3.72041D-01-6.21653D-01-1.11691D-02 6.74183D-01
   18   2.64086D-01-6.77602D-01-5.16961D+00-4.89319D-02 1.39492D-02 5.25081D-02-2.72197D-03 3.50433D-02-2.15155D-02 1.34890D-01
   19  -2.18104D+01-4.34829D+00-1.16907D+00-4.21800D+00 6.94645D-01-1.22817D-01 3.10149D-01 7.93200D-01 2.09835D-02-7.56835D-01
   20  -7.60509D+00-1.32558D+01-7.69020D-01 1.40288D+00 1.55878D+00 6.07908D-02 3.22982D-01-3.39023D-01-3.63830D-02 1.69194D-02
   21  -1.66328D+00-9.45442D-01-5.82296D+00 3.69240D-02-2.16878D-02 3.31981D-01 5.40881D-03-2.14461D-02 2.19519D-01-3.97261D-03
   22  -7.01586D-02-2.74828D+00-4.85884D-01 2.54687D-01 8.24566D-02-7.70725D-03-7.16412D-02-2.34269D-03 3.67386D-02 3.62823D-02
   23  -8.25040D-01-1.58847D+00-4.26210D-01 6.41896D-02-1.70717D-01 8.84940D-02 4.08022D-02-6.82033D-03 3.66415D-02 1.52231D-02
   24  -2.34446D-02-3.08296D-01 2.66632D-01 9.87113D-02 8.70727D-02-2.92006D-01-2.56662D-02-1.10813D-02-1.54218D-02 1.00867D-02
   25  -1.68115D-01-8.91076D-02-8.56866D-02-2.66327D-01-8.96579D-01 2.32511D-01 1.87578D-01 2.11479D-01 3.29594D-02 3.18407D-02
   26  -7.08777D-02 2.52493D-01-2.17459D-02-2.82063D+00-1.39430D+00 5.94932D-01 1.70681D-01-3.82136D-01 1.16375D-01-1.18335D-01
   27  -4.81263D-02-1.21477D-01-2.92517D-01 2.75536D-01 1.22706D-01 2.68647D-01-1.50181D-02-3.58611D-02 5.83092D-01 1.45846D-02
   28   2.13847D-01 3.01174D+00-9.32581D-02-1.04189D+01-3.47329D+00 3.10300D-01 1.44175D+00-2.87516D+00-1.27576D-03-5.41636D-01
   29   2.30306D+00-2.87319D+00 9.16308D-02-2.15742D-01-2.46542D+01 1.32446D+00-4.87760D+00-2.43205D+00 4.80838D-01-1.26351D-01
   30   3.73538D-02-2.93717D-02 3.32002D-01 3.14532D-01 1.84470D+00-5.81603D+00 7.13930D-02 3.49398D-01 3.02424D-01 3.89168D-02
   31   1.00282D+00-6.83482D-01 5.92559D-02 1.92293D+00 5.62666D+00-1.58140D-01-3.80814D+00-1.74244D-01 1.95266D-01-9.99756D-02
   32  -4.39632D-01-2.99808D-01 5.94889D-02 2.60350D+00-3.22379D+00 3.53720D-02 3.04753D-01 1.09841D-01-1.59002D-02 5.42219D-03
   33  -1.39959D-03 1.33413D-01 5.19303D-01-2.01123D-01 8.28745D-03 7.01166D-01 1.19404D-01-4.05335D-02-5.10242D-01 2.44224D-04
   34  -4.63978D-01 1.93474D-01 2.11135D-02-1.03725D+00-2.59084D+00 1.05115D-01 2.45773D+00 2.51112D+00-1.61439D-01-4.39402D-01
   35  -4.05326D-01 1.37896D-01-3.23881D-03-1.62571D+00-3.21413D+00 1.39847D-01 3.90045D+00-2.65732D+00-1.17826D-01 2.25707D-01
   36   6.54257D-02-4.54599D-02-1.65802D-02 7.78379D-02 3.01084D-01-3.99790D-01-2.41951D-01-4.42230D-02 5.28628D-01 2.64017D-02
   37  -1.48214D-01-2.44721D-01 2.37120D-02-3.59858D+00 2.95294D-01 2.09769D-01-1.86201D+01 5.28302D+00 3.43114D-01 1.15819D+00
   38  -9.72721D-02-2.49469D-01 1.19920D-02 1.32775D+00 4.40353D+00-1.87324D-01 4.48567D+00-1.45558D+01 3.81815D-02 2.56300D+00
   39   2.07551D-02 4.46775D-02 4.85763D-01 8.40626D-06-1.69542D-01 2.53839D-01 5.32174D-01 5.02647D-02-5.73910D+00-6.48752D-02
   40  -1.14668D-01-9.91414D-02 1.79743D-03-3.13726D-01-3.67790D-02-2.38186D-04-3.52994D+00 8.26346D-01 1.92282D-01-3.79620D-01
   41   3.72139D-02 2.61880D-02-2.82203D-04-3.16001D-03-8.07411D-01 2.15255D-02 6.98021D-01 3.18912D+00-3.66531D-02-9.36814D-01
   42   1.87449D-03 2.42458D-03 5.05459D-02 6.85241D-02 5.45040D-02 4.41797D-01 5.45333D-02-8.79937D-03 4.34615D-01 1.08380D-03
   43   4.84563D-02-5.41962D-03 3.75812D-03-3.14599D-01-4.01078D-01 3.82154D-02 4.37341D-02 1.06544D+00-1.94140D-02-3.79218D+00
   44   2.99235D-02 1.75177D-02-3.31812D-03 5.47088D-01 6.51074D-01-1.34394D-02 3.72962D-01-2.33896D+00-1.38393D-02 7.17323D-01
   45  -5.65811D-03-3.78328D-03-5.79862D-02 2.17312D-02 3.54695D-02-1.65805D-02-3.15181D-02-7.14487D-02-3.63980D-01 1.74930D-01
   46  -5.09306D-01-9.26507D-02-3.81901D-02 1.09062D+00 7.58800D-01 5.29207D-03-7.90911D-02-3.67262D+00-8.09587D-03-2.08579D+01
   47  -5.80945D-01-2.17210D-01-2.31155D-02 3.12360D-01-1.00915D+00-1.19703D-02-2.98942D+00-1.39851D+00 6.69582D-02-4.14414D+00
   48   1.64043D-02-1.16388D-02-1.66037D-02-4.43494D-02-3.70168D-02 4.45409D-01-4.10827D-02 1.49002D-01 2.09850D-01 5.16581D-01
   49  -2.86231D-01-3.34636D-02-4.62679D-03 9.36195D-02-3.36723D-01 4.68956D-03-4.70649D-01-2.77265D-02 1.44227D-02 1.17638D+00
   50   6.09344D-01 1.29698D-01 2.58217D-02-1.47126D-01 5.61333D-01-1.74088D-02-1.54916D-01 7.53275D-02 8.22770D-03-4.34711D+00
   51   3.30848D-02 1.42397D-02-3.70006D-02-1.32735D-02 2.25792D-02 5.28606D-02 4.10668D-02 1.13281D-02 4.74073D-01-1.75549D-01
   52   6.61951D-01 5.92214D-02 1.89494D-02-1.03490D-01 6.75866D-01-2.45341D-02-1.74106D-01-3.43725D-01 2.68252D-02-3.31890D+00
   53  -1.30372D-01-7.19319D-03 1.11080D-03 3.28641D-02-5.30484D-02-4.37867D-03 9.96808D-03-2.87979D-02 9.27140D-03 4.34164D-01
   54  -2.52591D-02 4.62489D-03 5.29570D-02-1.93976D-03-3.49067D-02-3.68161D-02 8.26731D-03 2.29860D-02-7.09958D-03 1.40972D-01
   55  -1.10833D+00-4.85862D-01 1.00697D-02-3.52281D-02-4.09026D-01 7.51915D-03-4.12616D-01 5.36203D-01 4.06436D-02 2.52373D+00
[...]
    8       86.561 ||       0.009               0.013             0.000
    9      126.317 ||       0.014              -0.010             0.326
   10      158.756 ||      -0.022               0.016             0.110
   11      184.703 ||       0.043               0.061             0.000
   12      265.433 ||       0.037               0.053             0.000
   13      284.746 ||      -0.059               0.041             0.010
   14      299.657 ||       0.020               0.029             0.000
   15      303.753 ||       0.002              -0.001            -0.035
   16      352.689 ||       0.075               0.106             0.000
   17      374.479 ||      -0.046               0.032            -0.025
   18      379.716 ||       0.025               0.035             0.000
   19      388.129 ||      -0.199               0.139             0.029
   20      394.479 ||       0.110               0.156             0.000
   21      457.245 ||      -0.010               0.007             0.052
   22      483.622 ||       0.018               0.026             0.000
   23      485.456 ||       0.012               0.018             0.000
   24      504.211 ||       0.053              -0.038             0.095
   25      505.522 ||      -0.038              -0.055            -0.000
   26      509.929 ||      -0.063              -0.090            -0.000
   27      523.516 ||      -0.088               0.061             0.311
   28      553.875 ||       0.021               0.029             0.000
   29      563.264 ||      -0.001               0.000             0.387
   30      576.357 ||       0.112              -0.079             0.232
   31      607.837 ||       0.056              -0.040             0.494
   32      632.515 ||       0.066               0.095             0.000
   33      675.767 ||       0.035               0.049             0.000
   34      677.785 ||      -0.007               0.005            -0.093
   35      688.957 ||      -0.094               0.066             0.078
   36      702.702 ||      -0.027               0.019            -0.011
   37      703.725 ||       0.021               0.030             0.000
   38      746.355 ||       0.156              -0.109            -0.087
   39      777.884 ||       0.063               0.090             0.000
   40      792.931 ||      -0.015               0.011            -0.073
   41      802.576 ||       0.109               0.155             0.000
   42      813.725 ||       0.070              -0.049             0.132
   43      819.764 ||      -0.098              -0.139            -0.000
   44      823.224 ||      -0.012              -0.017            -0.000
   45      839.658 ||       0.064              -0.045             0.038
   46      843.436 ||       0.003               0.003             0.000
   47      849.375 ||      -0.240               0.168            -0.121
   48      865.519 ||      -0.121               0.084             0.291
   49      878.422 ||      -0.039              -0.056             0.000
   50      895.047 ||       0.011              -0.010             1.760
   51      971.157 ||       0.041              -0.029             0.057
   52      989.687 ||      -0.033              -0.047            -0.000
   53      994.052 ||       0.021              -0.015             0.100
   54      999.917 ||       0.011               0.015             0.000
   55     1005.543 ||      -0.028              -0.040            -0.000
   56     1013.083 ||      -0.013               0.009             0.005
   57     1018.773 ||       0.120              -0.083            -0.020
   58     1018.809 ||      -0.007               0.016             0.002
   59     1025.365 ||      -0.085              -0.122            -0.000
   60     1058.076 ||      -0.138              -0.197            -0.000
   61     1084.055 ||       0.090               0.129             0.000
   62     1175.124 ||      -0.115               0.080            -0.019
   63     1191.066 ||       0.243               0.347             0.000
   64     1197.373 ||       0.284              -0.199            -0.010
   65     1211.788 ||       0.042               0.059             0.000
   66     1213.166 ||      -0.117               0.082             0.024
   67     1225.118 ||       0.040              -0.028             0.068
   68     1238.877 ||      -0.059              -0.084            -0.000
   69     1241.129 ||      -0.074              -0.105            -0.000
   70     1252.608 ||       0.124              -0.087            -0.146
   71     1260.877 ||       0.043               0.062             0.000
   72     1270.907 ||      -0.106              -0.151            -0.000
   73     1276.241 ||       0.070              -0.049             0.046
   74     1299.265 ||       0.027              -0.019             0.063
   75     1310.487 ||       0.151               0.215             0.000
   76     1350.211 ||       0.332               0.473             0.001
   77     1366.417 ||      -0.052              -0.074            -0.000
   78     1369.398 ||       0.617              -0.432             0.069
   79     1384.749 ||      -0.302              -0.431            -0.001
   80     1402.903 ||      -0.104               0.073             0.006
   81     1420.166 ||       0.047               0.067             0.000
   82     1422.667 ||       0.117              -0.082            -0.055
   83     1432.588 ||      -0.105              -0.149            -0.000
   84     1456.582 ||      -0.122               0.085             0.028
   85     1463.049 ||       0.207               0.295             0.000
   86     1480.413 ||       0.189              -0.132            -0.038
   87     1488.618 ||       0.115              -0.081             0.034
   88     1498.398 ||       0.016               0.022             0.000
   89     1520.315 ||       0.002               0.003            -0.000
   90     1528.346 ||      -0.097               0.069            -0.278
   91     1532.975 ||       0.143               0.204             0.000
   92     1558.288 ||      -0.110               0.077             0.040
   93     1571.169 ||       0.272               0.389             0.001
   94     1580.389 ||      -0.021               0.015             0.002
   95     1619.220 ||       0.100              -0.070             0.055
   96     1623.184 ||       0.018               0.025             0.000
   97     1656.839 ||      -0.019              -0.026            -0.000
   98     1659.846 ||      -0.302               0.212             0.048
   99     1673.527 ||       0.206               0.294             0.000
  100     1681.027 ||      -0.241               0.169             0.024
  101     2989.222 ||      -0.420              -0.600            -0.001
  102     3001.440 ||      -0.226               0.160            -0.981
  103     3074.342 ||      -0.439               0.304             0.497
  104     3074.877 ||      -0.674              -0.964            -0.002
  105     3174.428 ||       0.128              -0.090             0.041
  106     3174.738 ||      -0.395              -0.564            -0.001
  107     3175.556 ||       0.168              -0.118            -0.051
  108     3176.484 ||      -0.041              -0.059            -0.000
  109     3177.692 ||       0.169              -0.119            -0.002
  110     3195.207 ||      -0.365              -0.519            -0.001
  111     3195.433 ||       0.512              -0.360             0.032
  112     3196.889 ||      -0.527              -0.752            -0.001
  113     3198.523 ||       1.399              -0.980            -0.068
  114     3200.074 ||       0.559               0.798             0.001
 ----------------------------------------------------------------------------



  
  
 ----------------------------------------------------------------------------
 Normal Eigenvalue ||           Projected Infra Red Intensities
  Mode   [cm**-1]  || [atomic units] [(debye/angs)**2] [(KM/mol)] [arbitrary]
 ------ ---------- || -------------- ----------------- ---------- -----------
    1       -0.000 ||    0.000005           0.000         0.005       0.008
    2       -0.000 ||    0.000003           0.000         0.003       0.005
    3        0.000 ||    0.000007           0.000         0.007       0.012
    4        0.000 ||    0.000004           0.000         0.004       0.006
    5        0.000 ||    0.000003           0.000         0.002       0.004
    6        0.000 ||    0.000000           0.000         0.000       0.000
    7       82.566 ||    0.000023           0.001         0.023       0.036
    8       86.561 ||    0.000011           0.000         0.011       0.017
    9      126.317 ||    0.004624           0.107         4.508       7.176
   10      158.756 ||    0.000560           0.013         0.546       0.869
   11      184.703 ||    0.000238           0.005         0.232       0.369
   12      265.433 ||    0.000184           0.004         0.179       0.285
   13      284.746 ||    0.000226           0.005         0.220       0.350
   14      299.657 ||    0.000055           0.001         0.053       0.085
   15      303.753 ||    0.000053           0.001         0.052       0.083
   16      352.689 ||    0.000731           0.017         0.713       1.135
   17      374.479 ||    0.000161           0.004         0.157       0.250
   18      379.716 ||    0.000081           0.002         0.079       0.125
   19      388.129 ||    0.002592           0.060         2.527       4.022
   20      394.479 ||    0.001579           0.036         1.540       2.451
   21      457.245 ||    0.000124           0.003         0.120       0.192
   22      483.622 ||    0.000044           0.001         0.042       0.068
   23      485.456 ||    0.000020           0.000         0.020       0.031
   24      504.211 ||    0.000580           0.013         0.566       0.901
   25      505.522 ||    0.000192           0.004         0.187       0.298
   26      509.929 ||    0.000523           0.012         0.510       0.812
   27      523.516 ||    0.004688           0.108         4.570       7.274
   28      553.875 ||    0.000056           0.001         0.055       0.087
   29      563.264 ||    0.006483           0.150         6.320      10.060
   30      576.357 ||    0.003154           0.073         3.075       4.894
   31      607.837 ||    0.010804           0.249        10.532      16.764
   32      632.515 ||    0.000578           0.013         0.563       0.896
   33      675.767 ||    0.000156           0.004         0.152       0.242
   34      677.785 ||    0.000381           0.009         0.372       0.592
   35      688.957 ||    0.000831           0.019         0.810       1.290
   36      702.702 ||    0.000053           0.001         0.052       0.083
   37      703.725 ||    0.000056           0.001         0.055       0.087
   38      746.355 ||    0.001891           0.044         1.843       2.934
   39      777.884 ||    0.000520           0.012         0.507       0.807
   40      792.931 ||    0.000246           0.006         0.240       0.382
   41      802.576 ||    0.001561           0.036         1.522       2.422
   42      813.725 ||    0.001074           0.025         1.047       1.667
   43      819.764 ||    0.001252           0.029         1.221       1.943
   44      823.224 ||    0.000018           0.000         0.018       0.028
   45      839.658 ||    0.000331           0.008         0.323       0.513
   46      843.436 ||    0.000001           0.000         0.001       0.001
   47      849.375 ||    0.004357           0.101         4.247       6.760
   48      865.519 ||    0.004598           0.106         4.482       7.134
   49      878.422 ||    0.000204           0.005         0.199       0.317
   50      895.047 ||    0.134241           3.097       130.865     208.297
   51      971.157 ||    0.000250           0.006         0.244       0.388
   52      989.687 ||    0.000140           0.003         0.136       0.217
   53      994.052 ||    0.000461           0.011         0.449       0.715
   54      999.917 ||    0.000015           0.000         0.014       0.023
   55     1005.543 ||    0.000105           0.002         0.102       0.163
   56     1013.083 ||    0.000012           0.000         0.012       0.019
   57     1018.773 ||    0.000936           0.022         0.912       1.452
   58     1018.809 ||    0.000014           0.000         0.013       0.021
   59     1025.365 ||    0.000960           0.022         0.936       1.490
   60     1058.076 ||    0.002520           0.058         2.457       3.911
   61     1084.055 ||    0.001068           0.025         1.041       1.657
   62     1175.124 ||    0.000865           0.020         0.843       1.342
   63     1191.066 ||    0.007773           0.179         7.578      12.062
   64     1197.373 ||    0.005216           0.120         5.085       8.094
   65     1211.788 ||    0.000228           0.005         0.223       0.354
   66     1213.166 ||    0.000905           0.021         0.882       1.404
   67     1225.118 ||    0.000303           0.007         0.295       0.470
   68     1238.877 ||    0.000457           0.011         0.446       0.709
   69     1241.129 ||    0.000711           0.016         0.693       1.103
   70     1252.608 ||    0.001918           0.044         1.869       2.976
   71     1260.877 ||    0.000246           0.006         0.240       0.382
   72     1270.907 ||    0.001475           0.034         1.438       2.288
   73     1276.241 ||    0.000411           0.009         0.401       0.638
   74     1299.265 ||    0.000220           0.005         0.215       0.342
   75     1310.487 ||    0.002999           0.069         2.924       4.654
   76     1350.211 ||    0.014485           0.334        14.121      22.476
   77     1366.417 ||    0.000357           0.008         0.348       0.554
   78     1369.398 ||    0.024804           0.572        24.181      38.488
   79     1384.749 ||    0.012015           0.277        11.713      18.643
   80     1402.903 ||    0.000701           0.016         0.683       1.088
   81     1420.166 ||    0.000288           0.007         0.280       0.446
   82     1422.667 ||    0.001019           0.024         0.993       1.581
   83     1432.588 ||    0.001440           0.033         1.404       2.235
   84     1456.582 ||    0.000994           0.023         0.969       1.542
   85     1463.049 ||    0.005628           0.130         5.486       8.733
   86     1480.413 ||    0.002368           0.055         2.309       3.675
   87     1488.618 ||    0.000911           0.021         0.888       1.413
   88     1498.398 ||    0.000032           0.001         0.031       0.050
   89     1520.315 ||    0.000001           0.000         0.001       0.001
   90     1528.346 ||    0.003971           0.092         3.871       6.161
   91     1532.975 ||    0.002692           0.062         2.624       4.177
   92     1558.288 ||    0.000849           0.020         0.828       1.317
   93     1571.169 ||    0.009761           0.225         9.516      15.146
   94     1580.389 ||    0.000029           0.001         0.028       0.045
   95     1619.220 ||    0.000775           0.018         0.756       1.203
   96     1623.184 ||    0.000042           0.001         0.041       0.065
   97     1656.839 ||    0.000045           0.001         0.044       0.070
   98     1659.846 ||    0.005996           0.138         5.846       9.304
   99     1673.527 ||    0.005572           0.129         5.432       8.646
  100     1681.027 ||    0.003788           0.087         3.693       5.878
  101     2989.222 ||    0.023252           0.536        22.667      36.079
  102     3001.440 ||    0.045052           1.039        43.919      69.905
  103     3074.342 ||    0.023060           0.532        22.480      35.781
  104     3074.877 ||    0.059990           1.384        58.481      93.083
  105     3174.428 ||    0.001130           0.026         1.102       1.754
  106     3174.738 ||    0.020539           0.474        20.022      31.869
  107     3175.556 ||    0.001951           0.045         1.902       3.028
  108     3176.484 ||    0.000223           0.005         0.217       0.345
  109     3177.692 ||    0.001844           0.043         1.797       2.861
  110     3195.207 ||    0.017422           0.402        16.984      27.034
  111     3195.433 ||    0.017014           0.393        16.586      26.401
  112     3196.889 ||    0.036528           0.843        35.609      56.679
  113     3198.523 ||    0.126590           2.921       123.406     196.425
  114     3200.074 ||    0.041173           0.950        40.137      63.886
 ----------------------------------------------------------------------------



 vib:animation  F

 Task  times  cpu:     5320.9s     wall:     5519.4s


                                NWChem Input Module
                                -------------------


 Summary of allocated global arrays
-----------------------------------
  No active global arrays



                         GA Statistics for process    0
                         ------------------------------

       create   destroy   get      put      acc     scatter   gather  read&inc
calls: 4.31e+04 4.31e+04 4.32e+07 9.05e+05 1.93e+07 2966        0        0     
number of processes/call 1.02e+00 1.59e+00 1.08e+00 2.15e+00 0.00e+00
bytes total:             4.50e+10 1.59e+09 3.90e+10 1.63e+08 0.00e+00 0.00e+00
bytes remote:            3.56e+10 5.93e+08 3.29e+10 -1.70e+08 0.00e+00 0.00e+00
Max memory consumed for GA by this process: 141485584 bytes

MA_summarize_allocated_blocks: starting scan ...
MA_summarize_allocated_blocks: scan completed: 0 heap blocks, 0 stack blocks
MA usage statistics:

	allocation statistics:
					      heap	     stack
					      ----	     -----
	current number of blocks	         0	         0
	maximum number of blocks	        24	        53
	current total bytes		         0	         0
	maximum total bytes		  13353320	 343064496
	maximum total K-bytes		     13354	    343065
	maximum total M-bytes		        14	       344


                                     CITATION
                                     --------
                Please cite the following reference when publishing
                           results obtained with NWChem:

                 M. Valiev, E.J. Bylaska, N. Govind, K. Kowalski,
              T.P. Straatsma, H.J.J. van Dam, D. Wang, J. Nieplocha,
                        E. Apra, T.L. Windus, W.A. de Jong
                 "NWChem: a comprehensive and scalable open-source
                  solution for large scale molecular simulations"
                      Comput. Phys. Commun. 181, 1477 (2010)
                           doi:10.1016/j.cpc.2010.04.018

                              AUTHORS & CONTRIBUTORS
                              ----------------------
      E. J. Bylaska, W. A. de Jong, N. Govind, K. Kowalski, T. P. Straatsma,
     M. Valiev, H. J. J. van Dam, D. Wang, E. Apra, T. L. Windus, J. Hammond,
     J. Autschbach, P. Nichols, S. Hirata, M. T. Hackler, Y. Zhao, P.-D. Fan,
      R. J. Harrison, M. Dupuis, D. M. A. Smith, K. Glaesemann, J. Nieplocha,
      V. Tipparaju, M. Krishnan, A. Vazquez-Mayagoitia, L. Jensen, M. Swart,
      Q. Wu, T. Van Voorhis, A. A. Auer, M. Nooijen, L. D. Crosby, E. Brown,
             G. Cisneros, G. I. Fann, H. Fruchtl, J. Garza, K. Hirao,
        R. Kendall, J. A. Nichols, K. Tsemekhman, K. Wolinski, J. Anchell,
       D. Bernholdt, P. Borowski, T. Clark, D. Clerc, H. Dachsel, M. Deegan,
        K. Dyall, D. Elwood, E. Glendening, M. Gutowski, A. Hess, J. Jaffe,
        B. Johnson, J. Ju, R. Kobayashi, R. Kutteh, Z. Lin, R. Littlefield,
    X. Long, B. Meng, T. Nakajima, S. Niu, L. Pollack, M. Rosing, G. Sandrone,
       M. Stave, H. Taylor, G. Thomas, J. H. van Lenthe, A. Wong, Z. Zhang.

 Total times  cpu:     5320.9s     wall:     5519.5s
