/usr/local/nwchem-5.1.1/bin/nwchem, len=34
 input.inp, len=9
 argument  1 = input.inp
 


============================== echo of input deck ==============================
title "MEA_g2_NWCHEM"

echo

charge 0

geometry
zmatrix
C
C 1 B1
N 2 B2 1 A1
H 3 B3 2 A2 1 D1
H 3 B4 2 A3 1 D2
H 2 B5 1 A4 3 D3
H 2 B6 1 A5 3 D4
H 1 B7 2 A6 3 D5
O 1 B8 2 A7 3 D6
H 9 B9 1 A8 2 D7
H 1 B10 2 A9 3 D8
variables
B1 1.5293223
B2 1.4802482
A1 110.67689
B3 1.0210168
A2 110.47536
D1 -179.07248
B4 1.0215163
A3 110.47961
D2 63.545118
B5 1.0913629
A4 109.91055
D3 122.87896
B6 1.0917984
A5 109.16026
D4 -120.94777
B7 1.0911375
A6 112.51770
D5 168.63456
B8 1.4025542
A7 102.69929
D6 48.714120
B9 0.9572738
A8 102.46462
D7 -26.377073
B10 1.0908388
A9 111.70431
D8 -69.054892
end
end

basis noprint
 * library 3-21G
end

scf
 noprint "final vectors analysis"
 singlet
end
task scf energy

property
  dipole
  mulliken
end
task scf property

task scf freq

================================================================================


                                         
                                         
 
 
             Northwest Computational Chemistry Package (NWChem) 5.1.1
             --------------------------------------------------------
 
 
                    Environmental Molecular Sciences Laboratory
                       Pacific Northwest National Laboratory
                                Richland, WA 99352
 
                                         
                                         
 
 
                  COPYRIGHT (C) 1994, 1995, 1996, 1997, 1998, 1999
                2000, 2001, 2002, 2003, 2004, 2005, 2006, 2007, 2008
                        Pacific Northwest National Laboratory,
                             Battelle Memorial Institute.
 
                            >>> All Rights Reserved <<<
 
 
                                    DISCLAIMER
                                    ----------

            This material was prepared as an account of work sponsored
            by an agency of the United States Government.  Neither the
            United States Government nor the United States Department
            of Energy, nor Battelle, nor any of their employees, MAKES
            ANY WARRANTY, EXPRESS OR IMPLIED, OR ASSUMES ANY LEGAL
            LIABILITY OR RESPONSIBILITY FOR THE ACCURACY, COMPLETENESS,
            OR USEFULNESS OF ANY INFORMATION, APPARATUS, PRODUCT,
            SOFTWARE, OR PROCESS DISCLOSED, OR REPRESENTS THAT ITS USE
            WOULD NOT INFRINGE PRIVATELY OWNED RIGHTS.


                                    LIMITED USE
                                    -----------

            This software (including any documentation) is being made
            available to you for your internal use only, solely for use
            in performance of work directly for the U.S. Federal
            Government or work under contracts with the U.S. Department
            of Energy or other U.S. Federal Government agencies.  This
            software is a version which has not yet been evaluated and
            cleared for commercialization.  Adherence to this notice
            may be necessary for the author, Battelle Memorial
            Institute, to successfully assert copyright in and
            commercialize this software. This software is not intended
            for duplication or distribution to third parties without
            the permission of the Manager of Software Products at
            Pacific Northwest National Laboratory, Richland,
            Washington, 99352.


                                  ACKNOWLEDGMENT
                                  --------------

            This software and its documentation were produced with
            Government support under Contract Number DE-AC05-76RL01830
            awarded by the United States Department of Energy.  The
            Government retains a paid-up non-exclusive, irrevocable
            worldwide license to reproduce, prepare derivative works,
            perform publicly and display publicly by or for the
            Government, including the right to distribute to other
            Government contractors.


           Job information
           ---------------

    hostname      = buchner.chem.hope.edu
    program       = /usr/local/nwchem-5.1.1/bin/nwchem
    date          = Fri Apr 29 09:44:52 2011

    compiled      = Thu_Feb_26_15:07:44_2009
    source        = /home/d3p307/nwchem-5.1.1
    nwchem branch = 5.1.1
    input         = input.inp
    prefix        = input.
    data base     = ./input.db
    status        = startup
    nproc         =    1
    time left     =     -1s



           Memory information
           ------------------

    heap      =   13107201 doubles =    100.0 Mbytes
    stack     =   13107201 doubles =    100.0 Mbytes
    global    =   26214400 doubles =    200.0 Mbytes (distinct from heap & stack)
    total     =   52428802 doubles =    400.0 Mbytes
    verify    = yes
    hardfail  = no 


           Directory information
           ---------------------
 
  0 permanent = .
  0 scratch   = .
 
 
 
 
                                NWChem Input Module
                                -------------------
 
 
                                   MEA_g2_NWCHEM
                                   -------------

 Scaling coordinates for geometry "geometry" by  1.889725989
 (inverse scale =  0.529177249)

 C1  symmetry detected
 
 
                             Geometry "geometry" -> ""
                             -------------------------
 
 Output coordinates in angstroms (scale by  1.889725989 to convert to a.u.)
 
  No.       Tag          Charge          X              Y              Z
 ---- ---------------- ---------- -------------- -------------- --------------
    1 C                    6.0000     0.58339695    -0.85706998     0.25548270
    2 C                    6.0000     0.65733767     0.57737106    -0.26962526
    3 N                    7.0000    -0.55926730     1.33375484     0.10305511
    4 H                    1.0000    -0.51353958     2.28615988    -0.26205984
    5 H                    1.0000    -0.63036711     1.41847680     1.11856609
    6 H                    1.0000     1.55394970     1.06765413     0.11349659
    7 H                    1.0000     0.76112846     0.55627311    -1.35627428
    8 H                    1.0000     1.36193786    -1.49624790    -0.16392960
    9 O                    8.0000    -0.69338111    -1.26952303    -0.15302502
   10 H                    1.0000    -1.17102225    -0.44158607    -0.20548888
   11 H                    1.0000     0.65542523    -0.89263605     1.34335965
 
      Atomic Mass 
      ----------- 
 
      C                 12.000000
      N                 14.003070
      H                  1.007825
      O                 15.994910
 

 Effective nuclear repulsion energy (a.u.)     136.3669266841

            Nuclear Dipole moment (a.u.) 
            ----------------------------
        X                 Y               Z
 ---------------- ---------------- ----------------
     0.0000000000     0.0000000000     0.0000000000
 


                                Z-matrix (user)
                                -------- 

 Units are Angstrom for bonds and degrees for angles
 
      Type          Name      I     J     K     L     M      Value
      ----------- --------  ----- ----- ----- ----- ----- ----------
    1 Stretch      B1          2     1                       1.52932
    2 Stretch      B2          3     2                       1.48025
    3 Bend         A1          3     2     1               110.67689
    4 Stretch      B3          4     3                       1.02102
    5 Bend         A2          4     3     2               110.47536
    6 Torsion      D1          4     3     2     1        -179.07248
    7 Stretch      B4          5     3                       1.02152
    8 Bend         A3          5     3     2               110.47961
    9 Torsion      D2          5     3     2     1          63.54512
   10 Stretch      B5          6     2                       1.09136
   11 Bend         A4          6     2     1               109.91055
   12 Torsion      D3          6     2     1     3         122.87896
   13 Stretch      B6          7     2                       1.09180
   14 Bend         A5          7     2     1               109.16026
   15 Torsion      D4          7     2     1     3        -120.94777
   16 Stretch      B7          8     1                       1.09114
   17 Bend         A6          8     1     2               112.51770
   18 Torsion      D5          8     1     2     3         168.63456
   19 Stretch      B8          9     1                       1.40255
   20 Bend         A7          9     1     2               102.69929
   21 Torsion      D6          9     1     2     3          48.71412
   22 Stretch      B9         10     9                       0.95727
   23 Bend         A8         10     9     1               102.46462
   24 Torsion      D7         10     9     1     2         -26.37707
   25 Stretch      B10        11     1                       1.09084
   26 Bend         A9         11     1     2               111.70431
   27 Torsion      D8         11     1     2     3         -69.05489
 
 
            XYZ format geometry
            -------------------
    11
 geometry
 C                     0.58339695    -0.85706998     0.25548270
 C                     0.65733767     0.57737106    -0.26962526
 N                    -0.55926730     1.33375484     0.10305511
 H                    -0.51353958     2.28615988    -0.26205984
 H                    -0.63036711     1.41847680     1.11856609
 H                     1.55394970     1.06765413     0.11349659
 H                     0.76112846     0.55627311    -1.35627428
 H                     1.36193786    -1.49624790    -0.16392960
 O                    -0.69338111    -1.26952303    -0.15302502
 H                    -1.17102225    -0.44158607    -0.20548888
 H                     0.65542523    -0.89263605     1.34335965
 
 ==============================================================================
                                internuclear distances
 ------------------------------------------------------------------------------
       center one      |      center two      | atomic units |  angstroms
 ------------------------------------------------------------------------------
    2 C                |   1 C                |     2.89000  |     1.52932
    3 N                |   2 C                |     2.79726  |     1.48025
    4 H                |   3 N                |     1.92944  |     1.02102
    5 H                |   3 N                |     1.93039  |     1.02152
    6 H                |   2 C                |     2.06238  |     1.09136
    7 H                |   2 C                |     2.06320  |     1.09180
    8 H                |   1 C                |     2.06195  |     1.09114
    9 O                |   1 C                |     2.65044  |     1.40255
   10 H                |   9 O                |     1.80899  |     0.95727
   11 H                |   1 C                |     2.06139  |     1.09084
 ------------------------------------------------------------------------------
                         number of included internuclear distances:         10
 ==============================================================================



 ==============================================================================
                                 internuclear angles
 ------------------------------------------------------------------------------
        center 1       |       center 2       |       center 3       |  degrees
 ------------------------------------------------------------------------------
    2 C                |   1 C                |   8 H                |   112.52
    2 C                |   1 C                |   9 O                |   102.70
    2 C                |   1 C                |  11 H                |   111.70
    8 H                |   1 C                |   9 O                |   111.43
    8 H                |   1 C                |  11 H                |   108.49
    9 O                |   1 C                |  11 H                |   109.94
    1 C                |   2 C                |   3 N                |   110.68
    1 C                |   2 C                |   6 H                |   109.91
    1 C                |   2 C                |   7 H                |   109.16
    3 N                |   2 C                |   6 H                |   110.93
    3 N                |   2 C                |   7 H                |   109.79
    6 H                |   2 C                |   7 H                |   106.26
    2 C                |   3 N                |   4 H                |   110.48
    2 C                |   3 N                |   5 H                |   110.48
    4 H                |   3 N                |   5 H                |   106.33
    1 C                |   9 O                |  10 H                |   102.46
 ------------------------------------------------------------------------------
                            number of included internuclear angles:         16
 ==============================================================================



  library name resolved from: .nwchemrc
  library file name is: </usr/local/nwchem-5.1.1/usr.local.lib.nwchem/libraries/
 >
  
                                 NWChem SCF Module
                                 -----------------
 
 
                                   MEA_g2_NWCHEM
 
 

  ao basis        = "ao basis"
  functions       =    50
  atoms           =    11
  closed shells   =    17
  open shells     =     0
  charge          =   0.00
  wavefunction    = RHF 
  input vectors   = atomic
  output vectors  = ./input.movecs
  use symmetry    = F
  symmetry adapt  = F


 Summary of "ao basis" -> "ao basis" (cartesian)
 ------------------------------------------------------------------------------
       Tag                 Description            Shells   Functions and Types
 ---------------- ------------------------------  ------  ---------------------
 C                           3-21G                   5        9   3s2p
 N                           3-21G                   5        9   3s2p
 H                           3-21G                   2        2   2s
 O                           3-21G                   5        9   3s2p



 Forming initial guess at       0.1s

 
      Superposition of Atomic Density Guess
      -------------------------------------
 
 Sum of atomic energies:        -206.78296549
 
      Non-variational initial energy
      ------------------------------

 Total energy =    -209.077729
 1-e energy   =    -550.586119
 2-e energy   =     205.141463
 HOMO         =      -0.294495
 LUMO         =       0.155249
 

 Starting SCF solution at       0.3s



 ----------------------------------------------
         Quadratically convergent ROHF

 Convergence threshold     :          1.000E-04
 Maximum no. of iterations :           20
 Final Fock-matrix accuracy:          1.000E-07
 ----------------------------------------------


 Integral file          = ./input.aoints.0
 Record size in doubles =  65536        No. of integs per rec  =  43688
 Max. records in memory =     27        Max. records in file   = 377831
 No. of bits per label  =      8        No. of bits per value  =     64


 #quartets = 1.561D+05 #integrals = 7.480D+05 #direct =  0.0% #cached =100.0%


              iter       energy          gnorm     gmax       time
             ----- ------------------- --------- --------- --------
                 1     -207.8740958769  9.26D-01  1.65D-01      0.6
                 2     -207.9234026317  3.07D-01  1.08D-01      0.7
                 3     -207.9295687271  4.22D-02  1.07D-02      0.7
                 4     -207.9297427330  7.88D-04  2.17D-04      0.9
                 5     -207.9297428100  6.23D-06  1.29D-06      1.2


       Final RHF  results 
       ------------------ 

         Total SCF energy =   -207.929742809996
      One-electron energy =   -553.417705903522
      Two-electron energy =    209.121036409466
 Nuclear repulsion energy =    136.366926684061

        Time for solution =      1.0s


             Final eigenvalues
             -----------------

              1      
    1  -20.4049
    2  -15.4851
    3  -11.2117
    4  -11.2047
    5   -1.3461
    6   -1.1894
    7   -0.9772
    8   -0.8334
    9   -0.6994
   10   -0.6479
   11   -0.6248
   12   -0.6111
   13   -0.5529
   14   -0.5313
   15   -0.4532
   16   -0.4150
   17   -0.3996
   18    0.2458
   19    0.3014
   20    0.3082
   21    0.3378
   22    0.3422
   23    0.3687
   24    0.3824
   25    0.4314
   26    0.4517
   27    0.5006

 center of mass
 --------------
 x =  -0.06190200 y =  -0.07639007 z =  -0.01801352

 moments of inertia (a.u.)
 ------------------
         295.236932499912           0.000000000000           0.000000000000
           0.000000000000         128.203310219423           0.000000000000
           0.000000000000           0.000000000000         371.597154788906
 
  Mulliken analysis of the total density
  --------------------------------------

    Atom       Charge   Shell Charges
 -----------   ------   -------------------------------------------------------
    1 C    6     6.05   1.99  0.37  1.58  0.99  1.13
    2 C    6     6.28   1.99  0.35  1.59  1.05  1.29
    3 N    7     7.80   1.99  0.36  1.81  1.36  2.28
    4 H    1     0.69   0.45  0.24
    5 H    1     0.70   0.45  0.25
    6 H    1     0.82   0.48  0.33
    7 H    1     0.76   0.47  0.29
    8 H    1     0.79   0.48  0.31
    9 O    8     8.72   1.99  0.41  2.12  1.51  2.70
   10 H    1     0.58   0.42  0.16
   11 H    1     0.82   0.49  0.34
 
       Multipole analysis of the density wrt the origin
       ------------------------------------------------
 
     L   x y z        total         open         nuclear
     -   - - -        -----         ----         -------
     0   0 0 0      0.000000      0.000000     34.000000
 
     1   1 0 0      0.800708      0.000000      0.000000
     1   0 1 0      1.313401      0.000000      0.000000
     1   0 0 1      0.349351      0.000000      0.000000
 
     2   2 0 0    -19.684365      0.000000     64.212233
     2   1 1 0     -2.022763      0.000000     -3.548716
     2   1 0 1     -0.692855      0.000000     -0.901160
     2   0 2 0    -19.339664      0.000000    155.955039
     2   0 1 1      0.020996      0.000000     -0.858432
     2   0 0 2    -18.039781      0.000000     21.910020
 

 Parallel integral file used      18 records with       0 large values


 Task  times  cpu:        1.2s     wall:        1.3s
 
 
                                NWChem Input Module
                                -------------------
 
 
                              NWChem Property Module
                              ----------------------
 
 
                                   MEA_g2_NWCHEM
 
                                 NWChem SCF Module
                                 -----------------
 
 
                                   MEA_g2_NWCHEM
 
 

  ao basis        = "ao basis"
  functions       =    50
  atoms           =    11
  closed shells   =    17
  open shells     =     0
  charge          =   0.00
  wavefunction    = RHF 
  input vectors   = ./input.movecs
  output vectors  = ./input.movecs
  use symmetry    = F
  symmetry adapt  = F


 Summary of "ao basis" -> "ao basis" (cartesian)
 ------------------------------------------------------------------------------
       Tag                 Description            Shells   Functions and Types
 ---------------- ------------------------------  ------  ---------------------
 C                           3-21G                   5        9   3s2p
 N                           3-21G                   5        9   3s2p
 H                           3-21G                   2        2   2s
 O                           3-21G                   5        9   3s2p



  The SCF is already converged 

         Total SCF energy =   -207.929742809996


          -------------
          Dipole Moment
          -------------

 Center of charge (in au) is the expansion point
         X =       0.0000000 Y =       0.0000000 Z =       0.0000000

   Dipole moment        1.5774033390 A.U.
             DMX        0.8007081294 DMXEFC        0.0000000000
             DMY        1.3134008086 DMYEFC        0.0000000000
             DMZ        0.3493509719 DMZEFC        0.0000000000
   -EFC- dipole         0.0000000000 A.U.
   Total dipole         1.5774033390 A.U.

   Dipole moment        4.0093896707 Debye(s)
             DMX        2.0352124431 DMXEFC        0.0000000000
             DMY        3.3383570993 DMYEFC        0.0000000000
             DMZ        0.8879683107 DMZEFC        0.0000000000
   -EFC- dipole         0.0000000000 DEBYE(S)
   Total dipole         4.0093896707 DEBYE(S)

 1 a.u. = 2.541766 Debyes 


          ----------------------------
          Mulliken population analysis
          ----------------------------

          ----- Total      overlap population -----

                               1              2              3              4              5              6              7

    1   1 C  s            2.0382482193   0.0216290485   0.0000000000   0.0000000000   0.0000000000  -0.0738180834   0.0000000000
    2   1 C  s            0.0216290485   0.1061152580   0.0000000000   0.0000000000   0.0000000000   0.1766352904   0.0000000000
    3   1 C  px           0.0000000000   0.0000000000   0.2428021162   0.0000000000   0.0000000000   0.0000000000   0.0864493310
    4   1 C  py           0.0000000000   0.0000000000   0.0000000000   0.2851418213   0.0000000000   0.0000000000   0.0000000000
    5   1 C  pz           0.0000000000   0.0000000000   0.0000000000   0.0000000000   0.2945089263   0.0000000000   0.0000000000
    6   1 C  s           -0.0738180834   0.1766352904   0.0000000000   0.0000000000   0.0000000000   0.8122451453   0.0000000000
    7   1 C  px           0.0000000000   0.0000000000   0.0864493310   0.0000000000   0.0000000000   0.0000000000   0.1299629773
    8   1 C  py           0.0000000000   0.0000000000   0.0000000000   0.0938608869   0.0000000000   0.0000000000   0.0000000000
    9   1 C  pz           0.0000000000   0.0000000000   0.0000000000   0.0000000000   0.1138898438   0.0000000000   0.0000000000
   10   2 C  s            0.0000000000  -0.0000339919  -0.0000004531  -0.0003070988  -0.0000398845   0.0017800766   0.0000276999
   11   2 C  s           -0.0000354692   0.0008983046   0.0000143835   0.0052209443   0.0006915121   0.0032443236  -0.0001212597
   12   2 C  px          -0.0000019249   0.0000234618   0.0002397949   0.0001885819   0.0000170402   0.0003663642   0.0006318364
   13   2 C  py          -0.0002834877   0.0048189090   0.0001628018   0.0305706480   0.0051997876   0.0276659594  -0.0001161779
   14   2 C  pz          -0.0000404624   0.0007136031   0.0000278293   0.0055308352  -0.0001757815   0.0039845773   0.0000427091
   15   2 C  s            0.0018833056   0.0008388514   0.0000129323   0.0360580887   0.0049940800  -0.0712859822  -0.0009007869
   16   2 C  px          -0.0000398365   0.0001806831   0.0015750158   0.0002656887  -0.0000344280   0.0010914761  -0.0028375751
   17   2 C  py           0.0010380361   0.0048051967   0.0002637994   0.0334530791   0.0081759827   0.0159754814  -0.0003348218
   18   2 C  pz           0.0001691203   0.0006386005   0.0001019142   0.0102790925  -0.0030916424   0.0019883554   0.0001358916
   19   3 N  s            0.0000000000   0.0000000002   0.0000000006   0.0000000045  -0.0000000001   0.0000186331  -0.0000072548
   20   3 N  s            0.0000000000  -0.0000001051  -0.0000001799  -0.0000011454  -0.0000000032  -0.0002324309  -0.0000251471
   21   3 N  px           0.0000000000  -0.0000001642  -0.0000005825  -0.0000019706   0.0000000426   0.0001904807  -0.0000369291
   22   3 N  py           0.0000000000  -0.0000008396  -0.0000006586  -0.0000146495  -0.0000001910  -0.0013719448  -0.0001315073
   23   3 N  pz           0.0000000000  -0.0000000108   0.0000000056   0.0000000510  -0.0000001460  -0.0000066563   0.0000195449
   24   3 N  s            0.0000077234  -0.0001352919  -0.0001643596  -0.0011647434   0.0000133112  -0.0039636233  -0.0010489961
   25   3 N  px           0.0000031564  -0.0000847414  -0.0001240317  -0.0003889709   0.0000142966   0.0028379358  -0.0000803364
   26   3 N  py           0.0000415707  -0.0002614391   0.0000381660  -0.0029799971  -0.0000175408  -0.0122440327  -0.0006086477
   27   3 N  pz           0.0000003605  -0.0000000484   0.0000086060   0.0000038629  -0.0000572914  -0.0000142052   0.0001285021
   28   4 H  s            0.0000000000   0.0000000006   0.0000000002   0.0000000111   0.0000000004   0.0000552959   0.0000011706
   29   4 H  s           -0.0000007267   0.0000126723   0.0000044849   0.0001249540   0.0000055982   0.0010304883   0.0000855855
   30   5 H  s            0.0000000000  -0.0000000756  -0.0000000156  -0.0000005245   0.0000000127  -0.0001389754   0.0001145666
   31   5 H  s            0.0000038597  -0.0000400637   0.0000226478  -0.0003079274   0.0000626900  -0.0009303609   0.0005883805
   32   6 H  s            0.0000000163  -0.0000072100  -0.0000141753  -0.0000970125  -0.0000010585  -0.0032083377  -0.0001254132
   33   6 H  s            0.0001619437  -0.0007700793  -0.0008503696  -0.0045579043  -0.0000650553  -0.0158671700  -0.0003412425
   34   7 H  s            0.0000000102  -0.0000081440  -0.0000016300  -0.0000436142  -0.0000573481  -0.0019846625  -0.0001369289
   35   7 H  s            0.0001408800  -0.0008609683  -0.0000336265  -0.0018311799  -0.0031127828  -0.0084239719  -0.0001578143
   36   8 H  s           -0.0010669197   0.0107309034   0.0296105387   0.0219965922   0.0105504741   0.0628113228   0.0415464380
   37   8 H  s            0.0012254291   0.0062820890   0.0185382746   0.0165025937   0.0081808491   0.0368791119   0.0344336305
   38   9 O  s            0.0000000000  -0.0000276169  -0.0001519458  -0.0000131240  -0.0000148306   0.0021162043   0.0015300970
   39   9 O  s           -0.0000006406   0.0001885622   0.0013988011   0.0001316586   0.0001441933  -0.0039416860  -0.0019825176
   40   9 O  px          -0.0000212735   0.0029573711   0.0169360130   0.0025323861   0.0019757571   0.0115899178   0.0088795996
   41   9 O  py          -0.0000019914   0.0003300263   0.0019568926  -0.0001668343   0.0002064392   0.0007208712   0.0005741717
   42   9 O  pz          -0.0000024064   0.0002591348   0.0019853705   0.0002402768  -0.0001725034   0.0019984710   0.0052234878
   43   9 O  s            0.0007182367  -0.0011350165   0.0163706426   0.0013101953   0.0014640096  -0.0739342233  -0.0108538182
   44   9 O  px          -0.0023679428   0.0161426206   0.0569240435   0.0116487755   0.0067433688   0.0324512093   0.0202451588
   45   9 O  py          -0.0004096480   0.0026110110   0.0098729396  -0.0056868862   0.0010966499   0.0036909590   0.0026991053
   46   9 O  pz          -0.0003248486   0.0014736540   0.0071124175   0.0011278425  -0.0059659652   0.0078769750   0.0179556240
   47  10 H  s            0.0000006575  -0.0000855994  -0.0007353169  -0.0000025084  -0.0000547109  -0.0054544650  -0.0103874057
   48  10 H  s            0.0004823759  -0.0024417806  -0.0079805519  -0.0006338407  -0.0005830476  -0.0190850506  -0.0236724126
   49  11 H  s           -0.0010219948   0.0099404163   0.0000432670   0.0000629542   0.0625567121   0.0598054232   0.0002405370
   50  11 H  s            0.0019203703   0.0029772795  -0.0000695780   0.0001093936   0.0487302712   0.0184576971   0.0002827226

                               8              9             10             11             12             13             14

    1   1 C  s            0.0000000000   0.0000000000   0.0000000000  -0.0000354692  -0.0000019249  -0.0002834877  -0.0000404624
    2   1 C  s            0.0000000000   0.0000000000  -0.0000339919   0.0008983046   0.0000234618   0.0048189090   0.0007136031
    3   1 C  px           0.0000000000   0.0000000000  -0.0000004531   0.0000143835   0.0002397949   0.0001628018   0.0000278293
    4   1 C  py           0.0938608869   0.0000000000  -0.0003070988   0.0052209443   0.0001885819   0.0305706480   0.0055308352
    5   1 C  pz           0.0000000000   0.1138898438  -0.0000398845   0.0006915121   0.0000170402   0.0051997876  -0.0001757815
    6   1 C  s            0.0000000000   0.0000000000   0.0017800766   0.0032443236   0.0003663642   0.0276659594   0.0039845773
    7   1 C  px           0.0000000000   0.0000000000   0.0000276999  -0.0001212597   0.0006318364  -0.0001161779   0.0000427091
    8   1 C  py           0.1355921911   0.0000000000   0.0008517259   0.0062735268   0.0003005207   0.0277619154   0.0063493941
    9   1 C  pz           0.0000000000   0.1774291096   0.0000443789   0.0009361560   0.0000474366   0.0057522393  -0.0036582980
   10   2 C  s            0.0008517259   0.0000443789   2.0405114823   0.0227306631   0.0000000000   0.0000000000   0.0000000000
   11   2 C  s            0.0062735268   0.0009361560   0.0227306631   0.1003603119   0.0000000000   0.0000000000   0.0000000000
   12   2 C  px           0.0003005207   0.0000474366   0.0000000000   0.0000000000   0.2525621414   0.0000000000   0.0000000000
   13   2 C  py           0.0277619154   0.0057522393   0.0000000000   0.0000000000   0.0000000000   0.2819598272   0.0000000000
   14   2 C  pz           0.0063493941  -0.0036582980   0.0000000000   0.0000000000   0.0000000000   0.0000000000   0.2916881032
   15   2 C  s            0.0213877311   0.0054566110  -0.0789007344   0.1784058907   0.0000000000   0.0000000000   0.0000000000
   16   2 C  px           0.0005980055   0.0001288939   0.0000000000   0.0000000000   0.0907643324   0.0000000000   0.0000000000
   17   2 C  py           0.0219149570   0.0092168770   0.0000000000   0.0000000000   0.0000000000   0.1134407857   0.0000000000
   18   2 C  pz           0.0095157852  -0.0162578980   0.0000000000   0.0000000000   0.0000000000   0.0000000000   0.1357297777
   19   3 N  s            0.0000865791   0.0000033496   0.0000000000  -0.0000265439  -0.0001576559  -0.0000568732  -0.0000195476
   20   3 N  s           -0.0004990037  -0.0000190075  -0.0000037713   0.0003582451   0.0018934910   0.0005955283   0.0002130239
   21   3 N  px          -0.0002132491   0.0000591600  -0.0000460151   0.0026197090   0.0118288997   0.0056314285   0.0013118802
   22   3 N  py          -0.0027604490  -0.0000661907  -0.0000188196   0.0007944127   0.0052607525   0.0008950056   0.0005627587
   23   3 N  pz           0.0000196081  -0.0001268538  -0.0000044348   0.0001981809   0.0012882490   0.0004646057  -0.0001701085
   24   3 N  s           -0.0107905950  -0.0001853717   0.0006790381   0.0014251314   0.0201485250   0.0078465709   0.0030085588
   25   3 N  px          -0.0004105967   0.0004332241  -0.0013531069   0.0121780745   0.0301512114   0.0168204648   0.0034658607
   26   3 N  py          -0.0179639690  -0.0004987754  -0.0003028967   0.0020207243   0.0138239046  -0.0013899448   0.0017080877
   27   3 N  pz           0.0001719764  -0.0012345078  -0.0000712050   0.0005666733   0.0027706876   0.0012183064  -0.0038158659
   28   4 H  s            0.0001792109   0.0000039268   0.0000000620  -0.0000171795  -0.0000853024  -0.0001390123  -0.0000000270
   29   4 H  s            0.0025988031   0.0000699779   0.0001819250  -0.0008137351  -0.0014719751  -0.0032355235   0.0000020298
   30   5 H  s           -0.0001039786  -0.0000150747   0.0000000543  -0.0000197164  -0.0001072338  -0.0000418831  -0.0001025493
   31   5 H  s           -0.0010897950   0.0004326794   0.0002080942  -0.0009982429  -0.0019873195  -0.0005201158  -0.0031286431
   32   6 H  s           -0.0049470904  -0.0000434152  -0.0009229104   0.0085550872   0.0403747998   0.0135018630   0.0083308994
   33   6 H  s           -0.0165700797  -0.0001275624   0.0023435153  -0.0004744755   0.0312730826   0.0122433015   0.0061680241
   34   7 H  s           -0.0020721966  -0.0033510184  -0.0009890419   0.0098034109   0.0001206082   0.0000279098   0.0608526993
   35   7 H  s           -0.0063171611  -0.0122128030   0.0018910179   0.0036397121  -0.0001102865  -0.0000427479   0.0421225151
   36   8 H  s            0.0238026300   0.0139865400   0.0000000134  -0.0000068186  -0.0000021771  -0.0000726729  -0.0000005151
   37   8 H  s            0.0262946515   0.0132775681   0.0001433175  -0.0007709433  -0.0001183157  -0.0031109800  -0.0000293792
   38   9 O  s           -0.0003114586   0.0000789136   0.0000000000   0.0000000012   0.0000000049   0.0000000028  -0.0000000002
   39   9 O  s            0.0012666379   0.0001259416   0.0000000000  -0.0000001389  -0.0000006607  -0.0000001615   0.0000000208
   40   9 O  px           0.0012564585   0.0029500389   0.0000000000  -0.0000007202  -0.0000018325  -0.0000115196  -0.0000000238
   41   9 O  py           0.0027291801   0.0000161090   0.0000000000  -0.0000027613  -0.0000071398  -0.0000181401  -0.0000003181
   42   9 O  pz          -0.0002985668   0.0041535110   0.0000000000  -0.0000001341  -0.0000000718  -0.0000005090  -0.0000001635
   43   9 O  s            0.0099111980   0.0019075697  -0.0000001516  -0.0000713746  -0.0001669870  -0.0004129037   0.0000044081
   44   9 O  px           0.0056944525   0.0089691403   0.0000183138  -0.0002860479  -0.0003959601  -0.0018219218  -0.0000043488
   45   9 O  py           0.0086340698   0.0003847944   0.0000369907  -0.0006217862  -0.0007798466  -0.0025151038  -0.0000426615
   46   9 O  pz          -0.0008970386   0.0154468667   0.0000007538  -0.0000269176  -0.0000031723  -0.0000641569  -0.0000200903
   47  10 H  s            0.0006795187  -0.0011420523   0.0000000331  -0.0000194045  -0.0000382531  -0.0000533929  -0.0000010021
   48  10 H  s           -0.0017679645  -0.0022824694   0.0002007306  -0.0011871445  -0.0024160763  -0.0011489567  -0.0000056881
   49  11 H  s           -0.0002213123   0.0754839195   0.0000000118  -0.0000088338   0.0000000026  -0.0000593333  -0.0000555025
   50  11 H  s            0.0001260776   0.0772189207   0.0001364257  -0.0009641887  -0.0000000203  -0.0028094864  -0.0026822171

                              15             16             17             18             19             20             21

    1   1 C  s            0.0018833056  -0.0000398365   0.0010380361   0.0001691203   0.0000000000   0.0000000000   0.0000000000
    2   1 C  s            0.0008388514   0.0001806831   0.0048051967   0.0006386005   0.0000000002  -0.0000001051  -0.0000001642
    3   1 C  px           0.0000129323   0.0015750158   0.0002637994   0.0001019142   0.0000000006  -0.0000001799  -0.0000005825
    4   1 C  py           0.0360580887   0.0002656887   0.0334530791   0.0102790925   0.0000000045  -0.0000011454  -0.0000019706
    5   1 C  pz           0.0049940800  -0.0000344280   0.0081759827  -0.0030916424  -0.0000000001  -0.0000000032   0.0000000426
    6   1 C  s           -0.0712859822   0.0010914761   0.0159754814   0.0019883554   0.0000186331  -0.0002324309   0.0001904807
    7   1 C  px          -0.0009007869  -0.0028375751  -0.0003348218   0.0001358916  -0.0000072548  -0.0000251471  -0.0000369291
    8   1 C  py           0.0213877311   0.0005980055   0.0219149570   0.0095157852   0.0000865791  -0.0004990037  -0.0002132491
    9   1 C  pz           0.0054566110   0.0001288939   0.0092168770  -0.0162578980   0.0000033496  -0.0000190075   0.0000591600
   10   2 C  s           -0.0789007344   0.0000000000   0.0000000000   0.0000000000   0.0000000000  -0.0000037713  -0.0000460151
   11   2 C  s            0.1784058907   0.0000000000   0.0000000000   0.0000000000  -0.0000265439   0.0003582451   0.0026197090
   12   2 C  px           0.0000000000   0.0907643324   0.0000000000   0.0000000000  -0.0001576559   0.0018934910   0.0118288997
   13   2 C  py           0.0000000000   0.0000000000   0.1134407857   0.0000000000  -0.0000568732   0.0005955283   0.0056314285
   14   2 C  pz           0.0000000000   0.0000000000   0.0000000000   0.1357297777  -0.0000195476   0.0002130239   0.0013118802
   15   2 C  s            0.9103675742   0.0000000000   0.0000000000   0.0000000000   0.0016788339  -0.0003930609   0.0087379090
   16   2 C  px           0.0000000000   0.1423259283   0.0000000000   0.0000000000   0.0005456433   0.0018838298   0.0073102905
   17   2 C  py           0.0000000000   0.0000000000   0.1823734859   0.0000000000   0.0006962535  -0.0016183403   0.0094322600
   18   2 C  pz           0.0000000000   0.0000000000   0.0000000000   0.2362443151   0.0001436932   0.0000221915   0.0025576093
   19   3 N  s            0.0016788339   0.0005456433   0.0006962535   0.0001436932   2.0488045450   0.0206418462   0.0000000000
   20   3 N  s           -0.0003930609   0.0018838298  -0.0016183403   0.0000221915   0.0206418462   0.1019091155   0.0000000000
   21   3 N  px           0.0087379090   0.0073102905   0.0094322600   0.0025576093   0.0000000000   0.0000000000   0.3786770981
   22   3 N  py           0.0073868678   0.0069222955  -0.0006072069   0.0011103080   0.0000000000   0.0000000000   0.0000000000
   23   3 N  pz           0.0016714119   0.0018805050   0.0005411530  -0.0012267740   0.0000000000   0.0000000000   0.0000000000
   24   3 N  s           -0.0513785419   0.0089677360  -0.0056012617   0.0018690341  -0.0846079864   0.2194418854   0.0000000000
   25   3 N  px           0.0092734429   0.0096046935   0.0255266390   0.0058141528   0.0000000000   0.0000000000   0.2341459315
   26   3 N  py           0.0164596440   0.0148376953  -0.0073542290   0.0024254632   0.0000000000   0.0000000000   0.0000000000
   27   3 N  pz           0.0046591889   0.0033998425   0.0009034868  -0.0113155554   0.0000000000   0.0000000000   0.0000000000
   28   4 H  s           -0.0037598742  -0.0023008313  -0.0028046905  -0.0000065054  -0.0008301105   0.0070451000   0.0000491055
   29   4 H  s           -0.0116044132  -0.0050021696  -0.0095533821   0.0000005082   0.0006100480   0.0026455449  -0.0000581472
   30   5 H  s           -0.0029071897  -0.0028609842  -0.0014779333  -0.0030359774  -0.0007816844   0.0065629222   0.0002921317
   31   5 H  s           -0.0104932124  -0.0063913556  -0.0017864088  -0.0133232912   0.0009398296   0.0009025621   0.0002459085
   32   6 H  s            0.0566910969   0.0512590441   0.0179549464   0.0131848126  -0.0000000019  -0.0000004137  -0.0000548129
   33   6 H  s            0.0048164249   0.0500305774   0.0245942838   0.0128983244  -0.0000500712   0.0001915868  -0.0046410290
   34   7 H  s            0.0604924618  -0.0000297853   0.0000704517   0.0902633011   0.0000000182  -0.0000037215  -0.0000022183
   35   7 H  s            0.0189166613  -0.0008869524  -0.0000775044   0.0909731777   0.0001010967  -0.0005489761  -0.0001122965
   36   8 H  s           -0.0031929217   0.0002309662  -0.0051751097  -0.0000799364   0.0000000000   0.0000000000   0.0000000001
   37   8 H  s           -0.0140702275   0.0015370450  -0.0153321432  -0.0002827405  -0.0000005566   0.0000027757   0.0000132125
   38   9 O  s           -0.0000655080   0.0000338102  -0.0000446474  -0.0000075322   0.0000000000   0.0000000000   0.0000000000
   39   9 O  s            0.0002223041  -0.0002808447   0.0002737282   0.0000353787   0.0000000000  -0.0000000002   0.0000000000
   40   9 O  px          -0.0007010747   0.0002776899  -0.0017508727  -0.0000249937   0.0000000000   0.0000000001  -0.0000000011
   41   9 O  py          -0.0017844940   0.0010025815  -0.0021406167  -0.0001472995   0.0000000000  -0.0000000070  -0.0000000019
   42   9 O  pz          -0.0000201241   0.0001788911  -0.0000162455  -0.0003058571   0.0000000000  -0.0000000002   0.0000000000
   43   9 O  s            0.0049523712  -0.0032276916   0.0010939167   0.0004884498   0.0000002157  -0.0000099624  -0.0000030258
   44   9 O  px          -0.0070547032   0.0008921325  -0.0132507025  -0.0001687082  -0.0000000348   0.0000015861  -0.0000249171
   45   9 O  py          -0.0175819683   0.0058930047  -0.0160424205  -0.0009971485   0.0000029707  -0.0000822905  -0.0000143024
   46   9 O  pz          -0.0002435729   0.0011968448  -0.0002068747  -0.0024348470   0.0000000168  -0.0000027143   0.0000000110
   47  10 H  s           -0.0018794762   0.0014461963  -0.0012015528  -0.0000950442  -0.0000000131  -0.0000036467   0.0000060905
   48  10 H  s           -0.0090265703  -0.0055016445  -0.0029211461  -0.0000975188  -0.0000379294   0.0008286766   0.0014154437
   49  11 H  s           -0.0030030808   0.0000023722  -0.0038065114  -0.0032131207   0.0000000000  -0.0000000020  -0.0000000074
   50  11 H  s           -0.0125237998   0.0000095805  -0.0124794554  -0.0120536062   0.0000031911  -0.0000113005   0.0000161111

                              22             23             24             25             26             27             28

    1   1 C  s            0.0000000000   0.0000000000   0.0000077234   0.0000031564   0.0000415707   0.0000003605   0.0000000000
    2   1 C  s           -0.0000008396  -0.0000000108  -0.0001352919  -0.0000847414  -0.0002614391  -0.0000000484   0.0000000006
    3   1 C  px          -0.0000006586   0.0000000056  -0.0001643596  -0.0001240317   0.0000381660   0.0000086060   0.0000000002
    4   1 C  py          -0.0000146495   0.0000000510  -0.0011647434  -0.0003889709  -0.0029799971   0.0000038629   0.0000000111
    5   1 C  pz          -0.0000001910  -0.0000001460   0.0000133112   0.0000142966  -0.0000175408  -0.0000572914   0.0000000004
    6   1 C  s           -0.0013719448  -0.0000066563  -0.0039636233   0.0028379358  -0.0122440327  -0.0000142052   0.0000552959
    7   1 C  px          -0.0001315073   0.0000195449  -0.0010489961  -0.0000803364  -0.0006086477   0.0001285021   0.0000011706
    8   1 C  py          -0.0027604490   0.0000196081  -0.0107905950  -0.0004105967  -0.0179639690   0.0001719764   0.0001792109
    9   1 C  pz          -0.0000661907  -0.0001268538  -0.0001853717   0.0004332241  -0.0004987754  -0.0012345078   0.0000039268
   10   2 C  s           -0.0000188196  -0.0000044348   0.0006790381  -0.0013531069  -0.0003028967  -0.0000712050   0.0000000620
   11   2 C  s            0.0007944127   0.0001981809   0.0014251314   0.0121780745   0.0020207243   0.0005666733  -0.0000171795
   12   2 C  px           0.0052607525   0.0012882490   0.0201485250   0.0301512114   0.0138239046   0.0027706876  -0.0000853024
   13   2 C  py           0.0008950056   0.0004646057   0.0078465709   0.0168204648  -0.0013899448   0.0012183064  -0.0001390123
   14   2 C  pz           0.0005627587  -0.0001701085   0.0030085588   0.0034658607   0.0017080877  -0.0038158659  -0.0000000270
   15   2 C  s            0.0073868678   0.0016714119  -0.0513785419   0.0092734429   0.0164596440   0.0046591889  -0.0037598742
   16   2 C  px           0.0069222955   0.0018805050   0.0089677360   0.0096046935   0.0148376953   0.0033998425  -0.0023008313
   17   2 C  py          -0.0006072069   0.0005411530  -0.0056012617   0.0255266390  -0.0073542290   0.0009034868  -0.0028046905
   18   2 C  pz           0.0011103080  -0.0012267740   0.0018690341   0.0058141528   0.0024254632  -0.0113155554  -0.0000065054
   19   3 N  s            0.0000000000   0.0000000000  -0.0846079864   0.0000000000   0.0000000000   0.0000000000  -0.0008301105
   20   3 N  s            0.0000000000   0.0000000000   0.2194418854   0.0000000000   0.0000000000   0.0000000000   0.0070451000
   21   3 N  px           0.0000000000   0.0000000000   0.0000000000   0.2341459315   0.0000000000   0.0000000000   0.0000491055
   22   3 N  py           0.3209779240   0.0000000000   0.0000000000   0.0000000000   0.1737232328   0.0000000000   0.0427371765
   23   3 N  pz           0.0000000000   0.3133142959   0.0000000000   0.0000000000   0.0000000000   0.1596140420   0.0073716222
   24   3 N  s            0.0000000000   0.0000000000   1.1721496286   0.0000000000   0.0000000000   0.0000000000   0.0462382143
   25   3 N  px           0.0000000000   0.0000000000   0.0000000000   0.5604055544   0.0000000000   0.0000000000   0.0006022580
   26   3 N  py           0.1737232328   0.0000000000   0.0000000000   0.0000000000   0.3659030781   0.0000000000   0.0964659986
   27   3 N  pz           0.0000000000   0.1596140420   0.0000000000   0.0000000000   0.0000000000   0.3125564653   0.0145285317
   28   4 H  s            0.0427371765   0.0073716222   0.0462382143   0.0006022580   0.0964659986   0.0145285317   0.1703481411
   29   4 H  s            0.0227033708   0.0043143004   0.0058449417   0.0000848228   0.0719282956   0.0119731790   0.0790706239
   30   5 H  s            0.0001907112   0.0502172512   0.0438632174  -0.0002038852   0.0006486202   0.1106238396  -0.0005916220
   31   5 H  s            0.0001154392   0.0286789777  -0.0057415358   0.0001741155   0.0005944795   0.0888450282  -0.0072798496
   32   6 H  s            0.0000013373  -0.0000000596  -0.0003377902  -0.0068971741   0.0001983295  -0.0000082506  -0.0000008836
   33   6 H  s            0.0000932082  -0.0000044725   0.0037272841  -0.0378292214   0.0013302209  -0.0000457682  -0.0001262138
   34   7 H  s           -0.0000065795  -0.0000230312  -0.0017267740  -0.0002182174  -0.0007947321  -0.0025242076  -0.0000013745
   35   7 H  s           -0.0004108351  -0.0017752715  -0.0107583412   0.0009018084  -0.0032706936  -0.0124649379  -0.0003526662
   36   8 H  s            0.0000000001   0.0000000000   0.0000044809   0.0000093238   0.0000113396  -0.0000000024   0.0000000000
   37   8 H  s            0.0000234936  -0.0000000673   0.0004786642   0.0004560521   0.0008403383  -0.0000024045  -0.0000006036
   38   9 O  s            0.0000000000   0.0000000000   0.0000009865   0.0000001345   0.0000013984   0.0000002423   0.0000000000
   39   9 O  s           -0.0000000031  -0.0000000001  -0.0000091369  -0.0000010602  -0.0000603108  -0.0000003271   0.0000000000
   40   9 O  px           0.0000000007   0.0000000000   0.0000007140  -0.0000422917   0.0000081568   0.0000001207   0.0000000000
   41   9 O  py          -0.0000000673  -0.0000000025  -0.0001931594  -0.0000150702  -0.0002211985  -0.0000389824   0.0000000000
   42   9 O  pz          -0.0000000008  -0.0000000001   0.0000100996  -0.0000011037   0.0000306089  -0.0000027977   0.0000000000
   43   9 O  s           -0.0000512934  -0.0000030650  -0.0006784337  -0.0001166776  -0.0019757817  -0.0000839741   0.0000000335
   44   9 O  px           0.0000063782   0.0000004698   0.0000466944  -0.0013406234   0.0002096524   0.0000087779  -0.0000000106
   45   9 O  py          -0.0003193603  -0.0000158068  -0.0039656679  -0.0003098296  -0.0026870383  -0.0006098965   0.0000005811
   46   9 O  pz          -0.0000035521  -0.0000017397   0.0002161174  -0.0000155613   0.0004428967  -0.0000543856  -0.0000000077
   47  10 H  s            0.0000166923   0.0000018241  -0.0002204934   0.0000829023   0.0017994432  -0.0000817489   0.0000000017
   48  10 H  s            0.0016639672   0.0003196553   0.0112954951   0.0083357412   0.0132219571   0.0018642036  -0.0000184470
   49  11 H  s           -0.0000000164  -0.0000000038  -0.0000480168  -0.0000311987  -0.0000636047  -0.0000078760   0.0000000000
   50  11 H  s           -0.0000228987   0.0000500472  -0.0013502282   0.0000107015  -0.0009313970   0.0005667860  -0.0000023698

                              29             30             31             32             33             34             35

    1   1 C  s           -0.0000007267   0.0000000000   0.0000038597   0.0000000163   0.0001619437   0.0000000102   0.0001408800
    2   1 C  s            0.0000126723  -0.0000000756  -0.0000400637  -0.0000072100  -0.0007700793  -0.0000081440  -0.0008609683
    3   1 C  px           0.0000044849  -0.0000000156   0.0000226478  -0.0000141753  -0.0008503696  -0.0000016300  -0.0000336265
    4   1 C  py           0.0001249540  -0.0000005245  -0.0003079274  -0.0000970125  -0.0045579043  -0.0000436142  -0.0018311799
    5   1 C  pz           0.0000055982   0.0000000127   0.0000626900  -0.0000010585  -0.0000650553  -0.0000573481  -0.0031127828
    6   1 C  s            0.0010304883  -0.0001389754  -0.0009303609  -0.0032083377  -0.0158671700  -0.0019846625  -0.0084239719
    7   1 C  px           0.0000855855   0.0001145666   0.0005883805  -0.0001254132  -0.0003412425  -0.0001369289  -0.0001578143
    8   1 C  py           0.0025988031  -0.0001039786  -0.0010897950  -0.0049470904  -0.0165700797  -0.0020721966  -0.0063171611
    9   1 C  pz           0.0000699779  -0.0000150747   0.0004326794  -0.0000434152  -0.0001275624  -0.0033510184  -0.0122128030
   10   2 C  s            0.0001819250   0.0000000543   0.0002080942  -0.0009229104   0.0023435153  -0.0009890419   0.0018910179
   11   2 C  s           -0.0008137351  -0.0000197164  -0.0009982429   0.0085550872  -0.0004744755   0.0098034109   0.0036397121
   12   2 C  px          -0.0014719751  -0.0001072338  -0.0019873195   0.0403747998   0.0312730826   0.0001206082  -0.0001102865
   13   2 C  py          -0.0032355235  -0.0000418831  -0.0005201158   0.0135018630   0.0122433015   0.0000279098  -0.0000427479
   14   2 C  pz           0.0000020298  -0.0001025493  -0.0031286431   0.0083308994   0.0061680241   0.0608526993   0.0421225151
   15   2 C  s           -0.0116044132  -0.0029071897  -0.0104932124   0.0566910969   0.0048164249   0.0604924618   0.0189166613
   16   2 C  px          -0.0050021696  -0.0028609842  -0.0063913556   0.0512590441   0.0500305774  -0.0000297853  -0.0008869524
   17   2 C  py          -0.0095533821  -0.0014779333  -0.0017864088   0.0179549464   0.0245942838   0.0000704517  -0.0000775044
   18   2 C  pz           0.0000005082  -0.0030359774  -0.0133232912   0.0131848126   0.0128983244   0.0902633011   0.0909731777
   19   3 N  s            0.0006100480  -0.0007816844   0.0009398296  -0.0000000019  -0.0000500712   0.0000000182   0.0001010967
   20   3 N  s            0.0026455449   0.0065629222   0.0009025621  -0.0000004137   0.0001915868  -0.0000037215  -0.0005489761
   21   3 N  px          -0.0000581472   0.0002921317   0.0002459085  -0.0000548129  -0.0046410290  -0.0000022183  -0.0001122965
   22   3 N  py           0.0227033708   0.0001907112   0.0001154392   0.0000013373   0.0000932082  -0.0000065795  -0.0004108351
   23   3 N  pz           0.0043143004   0.0502172512   0.0286789777  -0.0000000596  -0.0000044725  -0.0000230312  -0.0017752715
   24   3 N  s            0.0058449417   0.0438632174  -0.0057415358  -0.0003377902   0.0037272841  -0.0017267740  -0.0107583412
   25   3 N  px           0.0000848228  -0.0002038852   0.0001741155  -0.0068971741  -0.0378292214  -0.0002182174   0.0009018084
   26   3 N  py           0.0719282956   0.0006486202   0.0005944795   0.0001983295   0.0013302209  -0.0007947321  -0.0032706936
   27   3 N  pz           0.0119731790   0.1106238396   0.0888450282  -0.0000082506  -0.0000457682  -0.0025242076  -0.0124649379
   28   4 H  s            0.0790706239  -0.0005916220  -0.0072798496  -0.0000008836  -0.0001262138  -0.0000013745  -0.0003526662
   29   4 H  s            0.0986775957  -0.0071165617  -0.0180017666  -0.0001683502  -0.0006646710  -0.0003861359  -0.0024782541
   30   5 H  s           -0.0071165617   0.1716909109   0.0838388145  -0.0000011471  -0.0001877545   0.0000000488   0.0002378629
   31   5 H  s           -0.0180017666   0.0838388145   0.1125926850  -0.0003093046  -0.0012903204   0.0002451031   0.0031786660
   32   6 H  s           -0.0001683502  -0.0000011471  -0.0003093046   0.1882505996   0.1063741233  -0.0002514700  -0.0061025772
   33   6 H  s           -0.0006646710  -0.0001877545  -0.0012903204   0.1063741233   0.1824239083  -0.0068888913  -0.0187700915
   34   7 H  s           -0.0003861359   0.0000000488   0.0002451031  -0.0002514700  -0.0068888913   0.1834928472   0.0890727978
   35   7 H  s           -0.0024782541   0.0002378629   0.0031786660  -0.0061025772  -0.0187700915   0.0890727978   0.1285479541
   36   8 H  s           -0.0000005007   0.0000000000  -0.0000001480  -0.0000000628  -0.0000157187  -0.0000013378  -0.0004927836
   37   8 H  s           -0.0000429573  -0.0000000530   0.0000114471   0.0000097068   0.0003722919  -0.0002837579  -0.0028301337
   38   9 O  s           -0.0000000839   0.0000000000  -0.0000009863   0.0000000000   0.0000006058   0.0000000000  -0.0000075509
   39   9 O  s            0.0000003986   0.0000000000   0.0000015525   0.0000000000  -0.0000040515  -0.0000000025   0.0000351459
   40   9 O  px          -0.0000001720   0.0000000000   0.0000000019   0.0000000001   0.0000557324  -0.0000000268  -0.0000349698
   41   9 O  py           0.0000091540  -0.0000000003   0.0000257874   0.0000000001   0.0000634343  -0.0000000276  -0.0000796089
   42   9 O  pz          -0.0000002060  -0.0000000004   0.0000041299   0.0000000000  -0.0000052337  -0.0000000205   0.0001493745
   43   9 O  s            0.0000012421   0.0000009704   0.0001060682   0.0000007307  -0.0000775439  -0.0000064608   0.0009042023
   44   9 O  px          -0.0000048063  -0.0000000086  -0.0000013761   0.0000077440   0.0013673934  -0.0000510234  -0.0003642199
   45   9 O  py           0.0001845430  -0.0000004613   0.0004638044   0.0000054393   0.0013049777  -0.0000393824  -0.0006904575
   46   9 O  pz          -0.0000055107  -0.0000044749   0.0000407398  -0.0000000988  -0.0000974735  -0.0000224734   0.0018706969
   47  10 H  s            0.0000392660  -0.0000007718   0.0000523121   0.0000000030   0.0000718343  -0.0000003188  -0.0000621394
   48  10 H  s           -0.0000670869  -0.0003299436  -0.0011731974   0.0000802836   0.0016678009  -0.0002570842  -0.0010245054
   49  11 H  s           -0.0000014836   0.0000000354   0.0001226129  -0.0000007271   0.0000001042   0.0000000165   0.0001872614
   50  11 H  s           -0.0001508513   0.0001905118   0.0018949208  -0.0001888063   0.0011822392   0.0001520583   0.0032844504

                              36             37             38             39             40             41             42

    1   1 C  s           -0.0010669197   0.0012254291   0.0000000000  -0.0000006406  -0.0000212735  -0.0000019914  -0.0000024064
    2   1 C  s            0.0107309034   0.0062820890  -0.0000276169   0.0001885622   0.0029573711   0.0003300263   0.0002591348
    3   1 C  px           0.0296105387   0.0185382746  -0.0001519458   0.0013988011   0.0169360130   0.0019568926   0.0019853705
    4   1 C  py           0.0219965922   0.0165025937  -0.0000131240   0.0001316586   0.0025323861  -0.0001668343   0.0002402768
    5   1 C  pz           0.0105504741   0.0081808491  -0.0000148306   0.0001441933   0.0019757571   0.0002064392  -0.0001725034
    6   1 C  s            0.0628113228   0.0368791119   0.0021162043  -0.0039416860   0.0115899178   0.0007208712   0.0019984710
    7   1 C  px           0.0415464380   0.0344336305   0.0015300970  -0.0019825176   0.0088795996   0.0005741717   0.0052234878
    8   1 C  py           0.0238026300   0.0262946515  -0.0003114586   0.0012666379   0.0012564585   0.0027291801  -0.0002985668
    9   1 C  pz           0.0139865400   0.0132775681   0.0000789136   0.0001259416   0.0029500389   0.0000161090   0.0041535110
   10   2 C  s            0.0000000134   0.0001433175   0.0000000000   0.0000000000   0.0000000000   0.0000000000   0.0000000000
   11   2 C  s           -0.0000068186  -0.0007709433   0.0000000012  -0.0000001389  -0.0000007202  -0.0000027613  -0.0000001341
   12   2 C  px          -0.0000021771  -0.0001183157   0.0000000049  -0.0000006607  -0.0000018325  -0.0000071398  -0.0000000718
   13   2 C  py          -0.0000726729  -0.0031109800   0.0000000028  -0.0000001615  -0.0000115196  -0.0000181401  -0.0000005090
   14   2 C  pz          -0.0000005151  -0.0000293792  -0.0000000002   0.0000000208  -0.0000000238  -0.0000003181  -0.0000001635
   15   2 C  s           -0.0031929217  -0.0140702275  -0.0000655080   0.0002223041  -0.0007010747  -0.0017844940  -0.0000201241
   16   2 C  px           0.0002309662   0.0015370450   0.0000338102  -0.0002808447   0.0002776899   0.0010025815   0.0001788911
   17   2 C  py          -0.0051751097  -0.0153321432  -0.0000446474   0.0002737282  -0.0017508727  -0.0021406167  -0.0000162455
   18   2 C  pz          -0.0000799364  -0.0002827405  -0.0000075322   0.0000353787  -0.0000249937  -0.0001472995  -0.0003058571
   19   3 N  s            0.0000000000  -0.0000005566   0.0000000000   0.0000000000   0.0000000000   0.0000000000   0.0000000000
   20   3 N  s            0.0000000000   0.0000027757   0.0000000000  -0.0000000002   0.0000000001  -0.0000000070  -0.0000000002
   21   3 N  px           0.0000000001   0.0000132125   0.0000000000   0.0000000000  -0.0000000011  -0.0000000019   0.0000000000
   22   3 N  py           0.0000000001   0.0000234936   0.0000000000  -0.0000000031   0.0000000007  -0.0000000673  -0.0000000008
   23   3 N  pz           0.0000000000  -0.0000000673   0.0000000000  -0.0000000001   0.0000000000  -0.0000000025  -0.0000000001
   24   3 N  s            0.0000044809   0.0004786642   0.0000009865  -0.0000091369   0.0000007140  -0.0001931594   0.0000100996
   25   3 N  px           0.0000093238   0.0004560521   0.0000001345  -0.0000010602  -0.0000422917  -0.0000150702  -0.0000011037
   26   3 N  py           0.0000113396   0.0008403383   0.0000013984  -0.0000603108   0.0000081568  -0.0002211985   0.0000306089
   27   3 N  pz          -0.0000000024  -0.0000024045   0.0000002423  -0.0000003271   0.0000001207  -0.0000389824  -0.0000027977
   28   4 H  s            0.0000000000  -0.0000006036   0.0000000000   0.0000000000   0.0000000000   0.0000000000   0.0000000000
   29   4 H  s           -0.0000005007  -0.0000429573  -0.0000000839   0.0000003986  -0.0000001720   0.0000091540  -0.0000002060
   30   5 H  s            0.0000000000  -0.0000000530   0.0000000000   0.0000000000   0.0000000000  -0.0000000003  -0.0000000004
   31   5 H  s           -0.0000001480   0.0000114471  -0.0000009863   0.0000015525   0.0000000019   0.0000257874   0.0000041299
   32   6 H  s           -0.0000000628   0.0000097068   0.0000000000   0.0000000000   0.0000000001   0.0000000001   0.0000000000
   33   6 H  s           -0.0000157187   0.0003722919   0.0000006058  -0.0000040515   0.0000557324   0.0000634343  -0.0000052337
   34   7 H  s           -0.0000013378  -0.0002837579   0.0000000000  -0.0000000025  -0.0000000268  -0.0000000276  -0.0000000205
   35   7 H  s           -0.0004927836  -0.0028301337  -0.0000075509   0.0000351459  -0.0000349698  -0.0000796089   0.0001493745
   36   8 H  s            0.1903747049   0.0971118067   0.0000000196  -0.0000022437  -0.0000169819  -0.0000015040  -0.0000000985
   37   8 H  s            0.0971118067   0.1454875161   0.0000961231  -0.0005353212  -0.0020475956  -0.0001713053  -0.0000164593
   38   9 O  s            0.0000000196   0.0000961231   2.0559195945   0.0172480020   0.0000000000   0.0000000000   0.0000000000
   39   9 O  s           -0.0000022437  -0.0005353212   0.0172480020   0.1223580585   0.0000000000   0.0000000000   0.0000000000
   40   9 O  px          -0.0000169819  -0.0020475956   0.0000000000   0.0000000000   0.3368088760   0.0000000000   0.0000000000
   41   9 O  py          -0.0000015040  -0.0001713053   0.0000000000   0.0000000000   0.0000000000   0.4207448657   0.0000000000
   42   9 O  pz          -0.0000000985  -0.0000164593   0.0000000000   0.0000000000   0.0000000000   0.0000000000   0.5179340775
   43   9 O  s           -0.0009423838  -0.0086234137  -0.0909824878   0.2689858056   0.0000000000   0.0000000000   0.0000000000
   44   9 O  px          -0.0022720853  -0.0145986788   0.0000000000   0.0000000000   0.1790267663   0.0000000000   0.0000000000
   45   9 O  py          -0.0001977982  -0.0013845084   0.0000000000   0.0000000000   0.0000000000   0.2396425386   0.0000000000
   46   9 O  pz          -0.0000140871  -0.0001394223   0.0000000000   0.0000000000   0.0000000000   0.0000000000   0.3057791917
   47  10 H  s            0.0000003030   0.0004813985  -0.0005751829   0.0045412224   0.0121270204   0.0349422841   0.0001473611
   48  10 H  s            0.0003673754   0.0037769735   0.0011281330  -0.0001189661   0.0059497047   0.0084020302   0.0001176104
   49  11 H  s           -0.0002479174  -0.0073053436   0.0000000086  -0.0000014430  -0.0000014897   0.0000001334  -0.0000324104
   50  11 H  s           -0.0076578538  -0.0294912135  -0.0000147697   0.0000087875  -0.0001558435  -0.0000756302  -0.0040493198

                              43             44             45             46             47             48             49

    1   1 C  s            0.0007182367  -0.0023679428  -0.0004096480  -0.0003248486   0.0000006575   0.0004823759  -0.0010219948
    2   1 C  s           -0.0011350165   0.0161426206   0.0026110110   0.0014736540  -0.0000855994  -0.0024417806   0.0099404163
    3   1 C  px           0.0163706426   0.0569240435   0.0098729396   0.0071124175  -0.0007353169  -0.0079805519   0.0000432670
    4   1 C  py           0.0013101953   0.0116487755  -0.0056868862   0.0011278425  -0.0000025084  -0.0006338407   0.0000629542
    5   1 C  pz           0.0014640096   0.0067433688   0.0010966499  -0.0059659652  -0.0000547109  -0.0005830476   0.0625567121
    6   1 C  s           -0.0739342233   0.0324512093   0.0036909590   0.0078769750  -0.0054544650  -0.0190850506   0.0598054232
    7   1 C  px          -0.0108538182   0.0202451588   0.0026991053   0.0179556240  -0.0103874057  -0.0236724126   0.0002405370
    8   1 C  py           0.0099111980   0.0056944525   0.0086340698  -0.0008970386   0.0006795187  -0.0017679645  -0.0002213123
    9   1 C  pz           0.0019075697   0.0089691403   0.0003847944   0.0154468667  -0.0011420523  -0.0022824694   0.0754839195
   10   2 C  s           -0.0000001516   0.0000183138   0.0000369907   0.0000007538   0.0000000331   0.0002007306   0.0000000118
   11   2 C  s           -0.0000713746  -0.0002860479  -0.0006217862  -0.0000269176  -0.0000194045  -0.0011871445  -0.0000088338
   12   2 C  px          -0.0001669870  -0.0003959601  -0.0007798466  -0.0000031723  -0.0000382531  -0.0024160763   0.0000000026
   13   2 C  py          -0.0004129037  -0.0018219218  -0.0025151038  -0.0000641569  -0.0000533929  -0.0011489567  -0.0000593333
   14   2 C  pz           0.0000044081  -0.0000043488  -0.0000426615  -0.0000200903  -0.0000010021  -0.0000056881  -0.0000555025
   15   2 C  s            0.0049523712  -0.0070547032  -0.0175819683  -0.0002435729  -0.0018794762  -0.0090265703  -0.0030030808
   16   2 C  px          -0.0032276916   0.0008921325   0.0058930047   0.0011968448   0.0014461963  -0.0055016445   0.0000023722
   17   2 C  py           0.0010939167  -0.0132507025  -0.0160424205  -0.0002068747  -0.0012015528  -0.0029211461  -0.0038065114
   18   2 C  pz           0.0004884498  -0.0001687082  -0.0009971485  -0.0024348470  -0.0000950442  -0.0000975188  -0.0032131207
   19   3 N  s            0.0000002157  -0.0000000348   0.0000029707   0.0000000168  -0.0000000131  -0.0000379294   0.0000000000
   20   3 N  s           -0.0000099624   0.0000015861  -0.0000822905  -0.0000027143  -0.0000036467   0.0008286766  -0.0000000020
   21   3 N  px          -0.0000030258  -0.0000249171  -0.0000143024   0.0000000110   0.0000060905   0.0014154437  -0.0000000074
   22   3 N  py          -0.0000512934   0.0000063782  -0.0003193603  -0.0000035521   0.0000166923   0.0016639672  -0.0000000164
   23   3 N  pz          -0.0000030650   0.0000004698  -0.0000158068  -0.0000017397   0.0000018241   0.0003196553  -0.0000000038
   24   3 N  s           -0.0006784337   0.0000466944  -0.0039656679   0.0002161174  -0.0002204934   0.0112954951  -0.0000480168
   25   3 N  px          -0.0001166776  -0.0013406234  -0.0003098296  -0.0000155613   0.0000829023   0.0083357412  -0.0000311987
   26   3 N  py          -0.0019757817   0.0002096524  -0.0026870383   0.0004428967   0.0017994432   0.0132219571  -0.0000636047
   27   3 N  pz          -0.0000839741   0.0000087779  -0.0006098965  -0.0000543856  -0.0000817489   0.0018642036  -0.0000078760
   28   4 H  s            0.0000000335  -0.0000000106   0.0000005811  -0.0000000077   0.0000000017  -0.0000184470   0.0000000000
   29   4 H  s            0.0000012421  -0.0000048063   0.0001845430  -0.0000055107   0.0000392660  -0.0000670869  -0.0000014836
   30   5 H  s            0.0000009704  -0.0000000086  -0.0000004613  -0.0000044749  -0.0000007718  -0.0003299436   0.0000000354
   31   5 H  s            0.0001060682  -0.0000013761   0.0004638044   0.0000407398   0.0000523121  -0.0011731974   0.0001226129
   32   6 H  s            0.0000007307   0.0000077440   0.0000054393  -0.0000000988   0.0000000030   0.0000802836  -0.0000007271
   33   6 H  s           -0.0000775439   0.0013673934   0.0013049777  -0.0000974735   0.0000718343   0.0016678009   0.0000001042
   34   7 H  s           -0.0000064608  -0.0000510234  -0.0000393824  -0.0000224734  -0.0000003188  -0.0002570842   0.0000000165
   35   7 H  s            0.0009042023  -0.0003642199  -0.0006904575   0.0018706969  -0.0000621394  -0.0010245054   0.0001872614
   36   8 H  s           -0.0009423838  -0.0022720853  -0.0001977982  -0.0000140871   0.0000003030   0.0003673754  -0.0002479174
   37   8 H  s           -0.0086234137  -0.0145986788  -0.0013845084  -0.0001394223   0.0004813985   0.0037769735  -0.0073053436
   38   9 O  s           -0.0909824878   0.0000000000   0.0000000000   0.0000000000  -0.0005751829   0.0011281330   0.0000000086
   39   9 O  s            0.2689858056   0.0000000000   0.0000000000   0.0000000000   0.0045412224  -0.0001189661  -0.0000014430
   40   9 O  px           0.0000000000   0.1790267663   0.0000000000   0.0000000000   0.0121270204   0.0059497047  -0.0000014897
   41   9 O  py           0.0000000000   0.0000000000   0.2396425386   0.0000000000   0.0349422841   0.0084020302   0.0000001334
   42   9 O  pz           0.0000000000   0.0000000000   0.0000000000   0.3057791917   0.0001473611   0.0001176104  -0.0000324104
   43   9 O  s            1.3732244986   0.0000000000   0.0000000000   0.0000000000   0.0300176983  -0.0109000159  -0.0005705282
   44   9 O  px           0.0000000000   0.3937618017   0.0000000000   0.0000000000   0.0287505827   0.0199122837  -0.0001670644
   45   9 O  py           0.0000000000   0.0000000000   0.5546412803   0.0000000000   0.1053807802   0.0330648823  -0.0000208003
   46   9 O  pz           0.0000000000   0.0000000000   0.0000000000   0.7308952915   0.0002020981   0.0003697980  -0.0041856140
   47  10 H  s            0.0300176983   0.0287505827   0.1053807802   0.0002020981   0.1618833881   0.0580997722   0.0000004350
   48  10 H  s           -0.0109000159   0.0199122837   0.0330648823   0.0003697980   0.0580997722   0.0790180348   0.0001174828
   49  11 H  s           -0.0005705282  -0.0001670644  -0.0000208003  -0.0041856140   0.0000004350   0.0001174828   0.1932066947
   50  11 H  s            0.0011377065   0.0004221314  -0.0005745466  -0.0333054838   0.0001216506   0.0012292042   0.1095918095

                              50
    1   1 C  s            0.0019203703
    2   1 C  s            0.0029772795
    3   1 C  px          -0.0000695780
    4   1 C  py           0.0001093936
    5   1 C  pz           0.0487302712
    6   1 C  s            0.0184576971
    7   1 C  px           0.0002827226
    8   1 C  py           0.0001260776
    9   1 C  pz           0.0772189207
   10   2 C  s            0.0001364257
   11   2 C  s           -0.0009641887
   12   2 C  px          -0.0000000203
   13   2 C  py          -0.0028094864
   14   2 C  pz          -0.0026822171
   15   2 C  s           -0.0125237998
   16   2 C  px           0.0000095805
   17   2 C  py          -0.0124794554
   18   2 C  pz          -0.0120536062
   19   3 N  s            0.0000031911
   20   3 N  s           -0.0000113005
   21   3 N  px           0.0000161111
   22   3 N  py          -0.0000228987
   23   3 N  pz           0.0000500472
   24   3 N  s           -0.0013502282
   25   3 N  px           0.0000107015
   26   3 N  py          -0.0009313970
   27   3 N  pz           0.0005667860
   28   4 H  s           -0.0000023698
   29   4 H  s           -0.0001508513
   30   5 H  s            0.0001905118
   31   5 H  s            0.0018949208
   32   6 H  s           -0.0001888063
   33   6 H  s            0.0011822392
   34   7 H  s            0.0001520583
   35   7 H  s            0.0032844504
   36   8 H  s           -0.0076578538
   37   8 H  s           -0.0294912135
   38   9 O  s           -0.0000147697
   39   9 O  s            0.0000087875
   40   9 O  px          -0.0001558435
   41   9 O  py          -0.0000756302
   42   9 O  pz          -0.0040493198
   43   9 O  s            0.0011377065
   44   9 O  px           0.0004221314
   45   9 O  py          -0.0005745466
   46   9 O  pz          -0.0333054838
   47  10 H  s            0.0001216506
   48  10 H  s            0.0012292042
   49  11 H  s            0.1095918095
   50  11 H  s            0.1887778845

          ----- Total      gross population in ao -----

    1   1 C  s             1.98824
    2   1 C  s             0.36531
    3   1 C  px            0.48235
    4   1 C  py            0.53816
    5   1 C  pz            0.55578
    6   1 C  s             0.99160
    7   1 C  px            0.29789
    8   1 C  py            0.34062
    9   1 C  pz            0.48668
   10   2 C  s             1.98879
   11   2 C  s             0.35446
   12   2 C  px            0.49622
   13   2 C  py            0.53865
   14   2 C  pz            0.55786
   15   2 C  s             1.05259
   16   2 C  px            0.37688
   17   2 C  py            0.36616
   18   2 C  pz            0.54842
   19   3 N  s             1.98770
   20   3 N  s             0.36168
   21   3 N  px            0.65933
   22   3 N  py            0.57940
   23   3 N  pz            0.56661
   24   3 N  s             1.36321
   25   3 N  px            0.87187
   26   3 N  py            0.72509
   27   3 N  pz            0.68198
   28   4 H  s             0.44638
   29   4 H  s             0.24137
   30   5 H  s             0.44844
   31   5 H  s             0.24960
   32   6 H  s             0.48109
   33   6 H  s             0.33443
   34   7 H  s             0.47243
   35   7 H  s             0.28946
   36   8 H  s             0.48169
   37   8 H  s             0.31127
   38   9 O  s             1.98594
   39   9 O  s             0.41003
   40   9 O  px            0.57852
   41   9 O  py            0.70630
   42   9 O  pz            0.83329
   43   9 O  s             1.50777
   44   9 O  px            0.73908
   45   9 O  py            0.91402
   46   9 O  pz            1.04397
   47  10 H  s             0.41880
   48  10 H  s             0.15825
   49  11 H  s             0.48729
   50  11 H  s             0.33704

          ----- Total      overlap population condensed to atoms -----


                               1              2              3              4              5              6              7

    1  C                  5.0593383988   0.2329255494  -0.0558392311   0.0041714540  -0.0014019547  -0.0474312159  -0.0404649603
    2  C                  0.2329255494   5.3627346001   0.2210783052  -0.0406100960  -0.0489739080   0.3528226974   0.3770376086
    3  N                 -0.0558392311   0.2210783052   7.0206156081   0.3342542523   0.3261679284  -0.0443270985  -0.0336379103
    4  H                  0.0041714540  -0.0406100960   0.3342542523   0.4271669846  -0.0329897998  -0.0009601187  -0.0032184307
    5  H                 -0.0014019547  -0.0489739080   0.3261679284  -0.0329897998   0.4519612248  -0.0017885266   0.0036616809
    6  H                 -0.0474312159   0.3528226974  -0.0443270985  -0.0009601187  -0.0017885266   0.5834227545  -0.0320130300
    7  H                 -0.0404649603   0.3770376086  -0.0336379103  -0.0032184307   0.0036616809  -0.0320130300   0.4901863970
    8  H                  0.3755827169  -0.0403335387   0.0018366501  -0.0000440616   0.0000112462   0.0003662171  -0.0036080130
    9  O                  0.2382532400  -0.0591748741  -0.0119672075   0.0001851554   0.0006357466   0.0026216563   0.0016631954
   10  H                 -0.0751466246  -0.0239459111   0.0405082607  -0.0000462661  -0.0014516007   0.0018199218  -0.0013440478
   11  H                  0.3566430767  -0.0535107637  -0.0018197133  -0.0001547047   0.0022080809   0.0009928100   0.0036237866

                               8              9             10             11
    1  C                  0.3755827169   0.2382532400  -0.0751466246   0.3566430767
    2  C                 -0.0403335387  -0.0591748741  -0.0239459111  -0.0535107637
    3  N                  0.0018366501  -0.0119672075   0.0405082607  -0.0018197133
    4  H                 -0.0000440616   0.0001851554  -0.0000462661  -0.0001547047
    5  H                  0.0000112462   0.0006357466  -0.0014516007   0.0022080809
    6  H                  0.0003662171   0.0026216563   0.0018199218   0.0009928100
    7  H                 -0.0036080130   0.0016631954  -0.0013440478   0.0036237866
    8  H                  0.5300858344  -0.0308677444   0.0046260503  -0.0447023283
    9  O                 -0.0308677444   8.3456879770   0.2734593244  -0.0415861761
   10  H                  0.0046260503   0.2734593244   0.3571009672   0.0014687726
   11  H                 -0.0447023283  -0.0415861761   0.0014687726   0.6011681982

 Total      S,P,D,... shell population
 --------------------------------
    Atom          S        P
 --------------------------------------------------------------------------------------
     1 C      3.34515   2.70148
     2 C      3.39585   2.88420
     3 N      3.71260   4.08427
     4 H      0.68775   0.00000
     5 H      0.69804   0.00000
     6 H      0.81553   0.00000
     7 H      0.76189   0.00000
     8 H      0.79295   0.00000
     9 O      3.90374   4.81517
    10 H      0.57705   0.00000
    11 H      0.82433   0.00000

          ----- Total      gross population on atoms ----

              1  C    6.0     6.04663
              2  C    6.0     6.28005
              3  N    7.0     7.79687
              4  H    1.0     0.68775
              5  H    1.0     0.69804
              6  H    1.0     0.81553
              7  H    1.0     0.76189
              8  H    1.0     0.79295
              9  O    8.0     8.71891
             10  H    1.0     0.57705
             11  H    1.0     0.82433

          ----- Bond indices -----
  1- 1   0.00000  1- 2   0.89808  1- 3  -0.00891  1- 4   0.00423  1- 5   0.00021  1- 6  -0.00883  1- 7  -0.01081  1- 8   0.90550
  2- 1   0.89808  2- 2   0.00000  2- 3   0.87812  2- 4   0.00050  2- 5   0.00116  2- 6   0.90692  2- 7   0.90440  2- 8  -0.00781
  3- 1  -0.00891  3- 2   0.87812  3- 3   0.00000  3- 4   0.86352  3- 5   0.86343  3- 6   0.00534  3- 7  -0.00444  3- 8   0.00528
  4- 1   0.00423  4- 2   0.00050  4- 3   0.86352  4- 4   0.00000  4- 5  -0.00131  4- 6  -0.00054  4- 7  -0.00025  4- 8   0.00095
  5- 1   0.00021  5- 2   0.00116  5- 3   0.86343  5- 4  -0.00131  5- 5   0.00000  5- 6  -0.00067  5- 7   0.00673  5- 8  -0.00003
  6- 1  -0.00883  6- 2   0.90692  6- 3   0.00534  6- 4  -0.00054  6- 5  -0.00067  6- 6   0.00000  6- 7  -0.00701  6- 8   0.00007
  7- 1  -0.01081  7- 2   0.90440  7- 3  -0.00444  7- 4  -0.00025  7- 5   0.00673  7- 6  -0.00701  7- 7   0.00000  7- 8   0.00011
  8- 1   0.90550  8- 2  -0.00781  8- 3   0.00528  8- 4   0.00095  8- 5  -0.00003  8- 6   0.00007  8- 7   0.00011  8- 8   0.00000
  9- 1   0.87984  9- 2   0.01628  9- 3   0.01518  9- 4   0.00242  9- 5   0.00037  9- 6   0.01470  9- 7   0.00295  9- 8   0.00721
 10- 1   0.00566 10- 2  -0.01021 10- 3   0.07354 10- 4  -0.00015 10- 5  -0.00025 10- 6   0.00067 10- 7  -0.00041 10- 8   0.00488
 11- 1   0.89679 11- 2  -0.00596 11- 3   0.00056 11- 4   0.00007 11- 5   0.00147 11- 6   0.00001 11- 7   0.00678 11- 8  -0.00634
  1- 9   0.87984  1-10   0.00566  1-11   0.89679
  2- 9   0.01628  2-10  -0.01021  2-11  -0.00596
  3- 9   0.01518  3-10   0.07354  3-11   0.00056
  4- 9   0.00242  4-10  -0.00015  4-11   0.00007
  5- 9   0.00037  5-10  -0.00025  5-11   0.00147
  6- 9   0.01470  6-10   0.00067  6-11   0.00001
  7- 9   0.00295  7-10  -0.00041  7-11   0.00678
  8- 9   0.00721  8-10   0.00488  8-11  -0.00634
  9- 9   0.00000  9-10   0.73544  9-11   0.01705
 10- 9   0.73544 10-10   0.00000 10-11   0.00013
 11- 9   0.01705 11-10   0.00013 11-11   0.00000

 Large bond indices
 ------------------
  1   C -  2   C    0.89808
  1   C -  8   H    0.90550
  1   C -  9   O    0.87984
  1   C - 11   H    0.89679
  2   C -  3   N    0.87812
  2   C -  6   H    0.90692
  2   C -  7   H    0.90440
  3   N -  4   H    0.86352
  3   N -  5   H    0.86343
  9   O - 10   H    0.73544

                                                                Free electrons             Valency
                              Number of         Sum of          + Bond indices         - Bond indices    
                Valency     Free electrons    Bond indices     =Mulliken charge     = Net spin population
     1  C       3.56175        2.48488          3.56175           6.04663                 0.00000
     2  C       3.58149        2.69856          3.58149           6.28005                 0.00000
     3  N       2.69161        5.10526          2.69161           7.79687                 0.00000
     4  H       0.86945       -0.18169          0.86945           0.68775                 0.00000
     5  H       0.87111       -0.17307          0.87111           0.69804                 0.00000
     6  H       0.91067       -0.09514          0.91067           0.81553                 0.00000
     7  H       0.89805       -0.13616          0.89805           0.76189                 0.00000
     8  H       0.90981       -0.11686          0.90981           0.79295                 0.00000
     9  O       1.69143        7.02748          1.69143           8.71891                 0.00000
    10  H       0.80930       -0.23225          0.80930           0.57705                 0.00000
    11  H       0.91056       -0.08623          0.91056           0.82433                 0.00000

 Task  times  cpu:        0.0s     wall:        0.0s
 
 
                                NWChem Input Module
                                -------------------
 
 
 
 
                   NWChem Nuclear Hessian and Frequency Analysis
                   ---------------------------------------------
 
 
 
                              NWChem Analytic Hessian
                              -----------------------
 
                                 NWChem SCF Module
                                 -----------------
 
 
                                   MEA_g2_NWCHEM
 
 

  ao basis        = "ao basis"
  functions       =    50
  atoms           =    11
  closed shells   =    17
  open shells     =     0
  charge          =   0.00
  wavefunction    = RHF 
  input vectors   = ./input.movecs
  output vectors  = ./input.movecs
  use symmetry    = F
  symmetry adapt  = F


 Summary of "ao basis" -> "ao basis" (cartesian)
 ------------------------------------------------------------------------------
       Tag                 Description            Shells   Functions and Types
 ---------------- ------------------------------  ------  ---------------------
 C                           3-21G                   5        9   3s2p
 N                           3-21G                   5        9   3s2p
 H                           3-21G                   2        2   2s
 O                           3-21G                   5        9   3s2p



 Forming initial guess at       1.4s


 Loading old vectors from job with title :

MEA_g2_NWCHEM


 Starting SCF solution at       1.4s



[...]
          29     0.11264     0.09888     0.16625     0.14109     0.01127     0.06881
          30    -0.18112     0.53821    -0.18705    -0.44618     0.55481     0.00498
          31     0.18867     0.05123    -0.09046     0.13400     0.06128    -0.09708
          32    -0.14815    -0.08505     0.15523    -0.25494    -0.10387     0.04278
          33    -0.09944    -0.00513     0.07060     0.01839     0.02742     0.04968

                   13          14          15          16          17          18
 
 P.Frequency      969.33     1089.19     1128.02     1160.15     1202.64     1325.97
 
           1    -0.00122     0.02490    -0.00712    -0.12503     0.09766    -0.03524
           2     0.03111    -0.03329    -0.07680    -0.00754     0.04880    -0.03941
           3    -0.05495    -0.06741     0.04718     0.01552     0.04156    -0.09961
           4    -0.03764    -0.03785    -0.16948     0.03476    -0.00450     0.00410
           5    -0.13232    -0.03990     0.06416    -0.04081    -0.07766     0.01989
           6    -0.02477     0.00788    -0.04197    -0.04586    -0.03714     0.04555
           7    -0.07564     0.05611     0.10713    -0.00882     0.00135    -0.01168
           8     0.01043     0.03221    -0.02309     0.05338     0.05118     0.00529
           9     0.02144     0.03098    -0.02749     0.01487     0.01368    -0.02991
          10     0.29953    -0.21485    -0.08751    -0.46663    -0.34709    -0.10455
          11     0.01182    -0.06900    -0.00943     0.06002     0.06086     0.06894
          12     0.02203    -0.19125     0.01986     0.02477     0.03772     0.11305
          13     0.29423    -0.59209     0.19709    -0.08926     0.00932     0.23668
          14     0.18137    -0.01110    -0.14463    -0.13866    -0.13011    -0.08585
          15     0.05021    -0.03969    -0.02075     0.01511     0.02105     0.00472
          16    -0.14859     0.05222    -0.25873     0.09789    -0.04949     0.07242
          17    -0.19918    -0.20907     0.02611    -0.24378    -0.13167    -0.01168
          18     0.31961     0.01980     0.24437     0.06173     0.14648    -0.08723
          19     0.22962    -0.14611     0.14323     0.16004     0.27552    -0.04210
          20     0.12462     0.20118     0.20230    -0.11571    -0.15605    -0.22820
          21    -0.00189    -0.00659    -0.01460    -0.03420    -0.00832     0.04439
          22     0.02256     0.10945     0.04630    -0.20607     0.29744     0.37635
          23    -0.05115    -0.14691     0.01260     0.03009     0.33547     0.25042
          24     0.11377     0.26712     0.00943    -0.20256    -0.03092     0.20625
          25     0.05244     0.01278     0.03108     0.10613    -0.09625     0.02723
          26     0.04564     0.01624     0.02660     0.03169    -0.02776     0.01657
          27     0.01865     0.01264     0.00140     0.02006    -0.03111     0.04904
          28     0.01362     0.09936     0.07543    -0.06936     0.11370     0.09696
          29     0.00820     0.07433     0.05248    -0.08249     0.11658     0.06434
          30    -0.10670     0.06660     0.00929    -0.02876     0.05731     0.06630
          31    -0.02967    -0.13615     0.00505     0.08631     0.10007    -0.53480
          32     0.26011     0.32681    -0.09022    -0.17831    -0.02211    -0.16203
          33    -0.04171    -0.03810     0.05022     0.00019     0.02758    -0.06655

                   19          20          21          22          23          24
 
 P.Frequency     1405.36     1441.20     1531.60     1564.98     1665.75     1700.45
 
           1    -0.05255     0.00740    -0.10280    -0.03285    -0.01095     0.00632
           2    -0.02919     0.03739    -0.08138     0.00639     0.05693    -0.00397
           3     0.06291    -0.01237    -0.01536     0.00304     0.00350     0.01293
           4     0.03741     0.00630     0.02303     0.05144     0.01285    -0.05454
           5     0.01306    -0.02914     0.01778    -0.12451     0.00083    -0.02775
           6    -0.07358    -0.07320    -0.00116     0.03260    -0.01305     0.04344
           7    -0.02776     0.02238     0.00786     0.01960    -0.00058    -0.00861
           8    -0.03072     0.00052    -0.00293     0.03124     0.00155    -0.00044
           9     0.01711     0.06577     0.02454    -0.02982    -0.00359    -0.00037
          10     0.27940     0.16536     0.12304    -0.21064     0.03673     0.01474
          11    -0.06211    -0.10865    -0.02826     0.06878     0.00375    -0.00214
          12    -0.06007    -0.17417    -0.02961     0.05847     0.00834     0.00514
          13    -0.15439    -0.35049    -0.12228     0.12770     0.01210     0.01483
          14     0.16120     0.11792     0.05178    -0.12328    -0.01790    -0.01433
          15    -0.00418     0.01354     0.00966    -0.01009    -0.00024     0.00426
          16     0.16502    -0.28237    -0.15697    -0.25225    -0.10005     0.20118
          17    -0.26484     0.40116     0.31941     0.48423    -0.02559     0.04308
          18     0.00424     0.03682     0.00611    -0.06764     0.23372    -0.57395
          19    -0.12603     0.29717     0.13178    -0.28662    -0.21932     0.53015
          20     0.44159    -0.13259    -0.31356     0.48648    -0.10131     0.25720
          21    -0.09973    -0.05402     0.00934    -0.00607    -0.01933     0.06536
          22     0.25578    -0.01708     0.16161     0.03251    -0.30626    -0.14440
          23     0.43604    -0.00355     0.29632     0.10352    -0.11419     0.01627
          24    -0.08690     0.00046    -0.08704    -0.01740    -0.23176    -0.24767
          25     0.00347     0.00875     0.01407     0.00571     0.01047     0.00658
          26     0.00254     0.00449    -0.00714    -0.00225    -0.05068    -0.01081
          27     0.00084     0.02012    -0.00514     0.00151     0.00041     0.00006
          28     0.11390    -0.10030     0.17544    -0.00625     0.63316     0.17930
          29     0.08170    -0.07084     0.11509    -0.00079     0.36849     0.10180
          30     0.06873    -0.02576     0.05716     0.01186     0.16008     0.05879
          31    -0.02275    -0.32521     0.30473     0.01124    -0.23704    -0.20636
          32    -0.21502    -0.38019     0.47059    -0.01085    -0.01836     0.15352
          33     0.05400    -0.01115    -0.02843    -0.00311     0.00620     0.02103

                   25          26          27          28          29          30
 
 P.Frequency     1722.53     1875.95     3115.37     3134.68     3154.54     3170.19
 
           1    -0.06892    -0.00070    -0.01860    -0.00353    -0.04451     0.02910
           2     0.06027     0.00603     0.01657     0.00352     0.03625    -0.02553
           3    -0.04004    -0.00299    -0.04653    -0.04445     0.02612    -0.04684
           4    -0.02133    -0.00984     0.03830    -0.04590    -0.01780    -0.00478
           5    -0.00539    -0.01264     0.02187    -0.02632    -0.01353    -0.00699
           6     0.01263    -0.00713     0.01743     0.01492    -0.05104    -0.06204
           7    -0.00408     0.03339     0.00081    -0.00065    -0.00019    -0.00056
           8     0.00166    -0.05592    -0.00084     0.00131     0.00000     0.00012
           9     0.00253    -0.02959    -0.00044    -0.00072     0.00184     0.00282
          10     0.04806    -0.20959     0.00217    -0.00383     0.00228     0.00050
          11    -0.01513     0.23771     0.00933    -0.01033    -0.00261     0.00301
          12    -0.02620     0.58674    -0.00473     0.01122     0.00004    -0.00175
          13     0.01238    -0.17089    -0.00296    -0.00022    -0.00111    -0.00227
          14    -0.04006     0.65763     0.00041     0.00532     0.00039     0.00289
          15     0.00446    -0.06300     0.01143     0.00093    -0.02026    -0.02667
          16     0.04102    -0.03306    -0.47608     0.54037     0.26054     0.12411
          17     0.02484     0.01911    -0.26405     0.31174     0.15241     0.07195
          18    -0.17714    -0.01008    -0.21465     0.25271     0.10312     0.04102
          19     0.16370     0.03803     0.01375     0.01826    -0.04048    -0.05160
          20     0.05200    -0.01013     0.00638    -0.02137     0.00887     0.01142
          21     0.02017    -0.00175     0.00344    -0.42299     0.50712     0.68916
          22     0.07913    -0.00558     0.20939     0.01544     0.51853    -0.36935
          23    -0.16347    -0.02231    -0.16844    -0.01477    -0.43431     0.31583
          24     0.52819     0.02673    -0.13908    -0.02085    -0.29684     0.20402
          25     0.00235    -0.00021    -0.00115    -0.00068     0.00085    -0.00072
          26    -0.02110    -0.00103    -0.00185    -0.00055    -0.00142     0.00053
          27    -0.00453     0.00043    -0.00031    -0.00008    -0.00010     0.00076
          28     0.28476     0.02889    -0.00744     0.00774     0.00229     0.00172
          29     0.17332     0.01651     0.01186     0.00670     0.01600    -0.00762
          30     0.07973    -0.00368    -0.00321    -0.00328     0.00451    -0.00931
          31     0.46496     0.01707     0.03367     0.03062    -0.01100     0.02660
          32    -0.37315    -0.02641    -0.01223    -0.01528     0.01138    -0.02037
          33    -0.06610    -0.01007     0.70441     0.54514    -0.02493     0.34879

                   31          32          33
 
 P.Frequency     3497.70     3558.45     3942.25
 
           1     0.00017    -0.00039     0.00336
           2     0.00007     0.00056    -0.00180
           3    -0.00005    -0.00013     0.00026
           4    -0.00399    -0.00077    -0.00179
           5    -0.00127    -0.00077    -0.00021
           6    -0.00288     0.00279    -0.00006
           7     0.00742    -0.00427     0.00022
           8    -0.03994    -0.04658     0.00039
           9    -0.03576     0.06101     0.00014
          10     0.00549     0.02104     0.00417
          11     0.53706     0.70356     0.00175
          12    -0.26212    -0.27811     0.00249
          13    -0.07724     0.04400    -0.00092
          14     0.01908    -0.05732    -0.00053
          15     0.76608    -0.57565    -0.00369
          16     0.01545     0.00177     0.00609
          17     0.01185     0.00111    -0.00405
          18     0.00919     0.00122     0.00042
          19    -0.00027     0.00410     0.00166
          20     0.00121    -0.00083     0.00036
          21     0.01898    -0.02424    -0.00087
          22    -0.00166     0.00078    -0.01515
          23     0.00034    -0.00082     0.00456
          24     0.00138    -0.00187     0.00641
          25     0.00005    -0.00004     0.03239
          26    -0.00007     0.00028    -0.04967
          27     0.00002    -0.00005     0.00422
          28    -0.00025     0.00263    -0.52680
          29     0.00276    -0.00111     0.80826
          30    -0.00149     0.00110    -0.06819
          31     0.00007    -0.00066    -0.00481
          32    -0.00187     0.00061    -0.00362
          33    -0.00050    -0.00095    -0.00791



 ----------------------------------------------------------------------------
 Normal Eigenvalue ||    Projected Derivative Dipole Moments (debye/angs)
  Mode   [cm**-1]  ||      [d/dqX]             [d/dqY]           [d/dqZ]
 ------ ---------- || ------------------ ------------------ -----------------
    1        0.000 ||      -0.002               0.006            -0.018
    2        0.000 ||      -0.210               0.134            -0.021
    3        0.000 ||       0.150               0.029            -0.452
    4        0.000 ||       0.208              -0.157             0.111
    5        0.000 ||      -0.124               0.039             0.137
    6        0.000 ||       0.060              -0.068             0.118
    7      175.123 ||       0.162               0.203            -0.311
    8      333.806 ||      -0.171               0.514             0.285
    9      380.747 ||       0.063               0.081            -0.085
   10      595.027 ||       0.408               0.092            -0.843
   11      651.708 ||       0.081              -0.994             1.744
   12      907.930 ||       0.776              -0.048             0.052
   13      969.326 ||       1.082              -0.152            -0.389
   14     1089.192 ||      -1.214              -0.083            -0.168
   15     1128.022 ||      -0.494               0.012             0.048
   16     1160.153 ||      -1.517              -0.497            -0.354
   17     1202.639 ||       0.546               0.300             0.222
   18     1325.970 ||      -0.203              -0.186             0.086
   19     1405.359 ||       0.391               0.405             0.266
   20     1441.197 ||      -0.251              -0.300            -0.217
   21     1531.604 ||      -0.074               0.145            -0.150
   22     1564.978 ||      -0.012              -0.187            -0.127
   23     1665.749 ||       1.292               1.045             0.266
   24     1700.454 ||       0.393               0.499             0.028
   25     1722.526 ||       0.462               0.595             0.105
   26     1875.950 ||       0.013               0.816             0.571
   27     3115.374 ||       0.368               0.745            -0.754
   28     3134.682 ||      -1.022              -0.254            -0.674
   29     3154.539 ||      -0.890               0.334            -0.229
   30     3170.193 ||       0.188              -0.402            -1.264
   31     3497.701 ||       0.072               0.140            -0.026
   32     3558.452 ||       0.016               0.187            -0.102
   33     3942.255 ||      -0.853               1.736            -0.148
 ----------------------------------------------------------------------------



  
  
 ----------------------------------------------------------------------------
 Normal Eigenvalue ||           Projected Infra Red Intensities
  Mode   [cm**-1]  || [atomic units] [(debye/angs)**2] [(KM/mol)] [arbitrary]
 ------ ---------- || -------------- ----------------- ---------- -----------
    1        0.000 ||    0.000016           0.000         0.015       0.004
    2        0.000 ||    0.002710           0.063         2.642       0.744
    3        0.000 ||    0.009876           0.228         9.628       2.713
    4        0.000 ||    0.003477           0.080         3.389       0.955
    5        0.000 ||    0.001548           0.036         1.509       0.425
    6        0.000 ||    0.000950           0.022         0.926       0.261
    7      175.123 ||    0.007109           0.164         6.930       1.953
    8      333.806 ||    0.016263           0.375        15.854       4.468
    9      380.747 ||    0.000768           0.018         0.748       0.211
   10      595.027 ||    0.038406           0.886        37.440      10.551
   11      651.708 ||    0.175015           4.038       170.613      48.079
   12      907.930 ||    0.026350           0.608        25.688       7.239
   13      969.326 ||    0.058326           1.346        56.859      16.023
   14     1089.192 ||    0.065438           1.510        63.792      17.977
   15     1128.022 ||    0.010665           0.246        10.397       2.930
   16     1160.153 ||    0.115862           2.673       112.948      31.829
   17     1202.639 ||    0.018942           0.437        18.466       5.204
   18     1325.970 ||    0.003592           0.083         3.501       0.987
   19     1405.359 ||    0.016789           0.387        16.367       4.612
   20     1441.197 ||    0.008685           0.200         8.466       2.386
   21     1531.604 ||    0.002121           0.049         2.068       0.583
   22     1564.978 ||    0.002229           0.051         2.173       0.612
   23     1665.749 ||    0.122761           2.832       119.674      33.724
   24     1700.454 ||    0.017512           0.404        17.071       4.811
   25     1722.526 ||    0.025033           0.578        24.403       6.877
   26     1875.950 ||    0.042997           0.992        41.916      11.812
   27     3115.374 ||    0.054550           1.259        53.178      14.986
   28     3134.682 ||    0.067714           1.562        66.011      18.602
   29     3154.539 ||    0.041434           0.956        40.392      11.382
   30     3170.193 ||    0.077836           1.796        75.879      21.383
   31     3497.701 ||    0.001104           0.025         1.077       0.303
   32     3558.452 ||    0.001975           0.046         1.925       0.542
   33     3942.255 ||    0.163193           3.765       159.089      44.832
 ----------------------------------------------------------------------------



 vib:animation  F

 Task  times  cpu:       17.7s     wall:       17.9s
 
 
                                NWChem Input Module
                                -------------------
 
 
 Summary of allocated global arrays
-----------------------------------
  No active global arrays



                         GA Statistics for process    0
                         ------------------------------

       create   destroy   get      put      acc     scatter   gather  read&inc
calls: 4160     4160     6.27e+05 1.29e+05 4.32e+05  926        0        0     
number of processes/call 1.00e+00 1.00e+00 1.00e+00 1.00e+00 0.00e+00
bytes total:             1.07e+09 5.85e+07 1.07e+09 1.38e+07 0.00e+00 0.00e+00
bytes remote:            0.00e+00 0.00e+00 0.00e+00 0.00e+00 0.00e+00 0.00e+00
Max memory consumed for GA by this process: 5714496 bytes
 



                                  ACKNOWLEDGEMENT
                                  ---------------

            Please use the following acknowledgement where appropriate 
            for results obtained with NWChem:

            High Performance Computational Chemistry Group, "NWChem, A
            Computational Chemistry Package for Parallel Computers, 
            Version 5.1.1" (2008), Pacific Northwest National Laboratory,
            Richland, Washington 99352-0999, USA.


                                     CITATION
                                     --------

          Please use the following citation when publishing results
          obtained with NWChem:

          E. J. Bylaska, W. A. de Jong, N. Govind, K. Kowalski, T. P. Straatsma,
          M. Valiev, D. Wang, E. Apra, T. L. Windus, J. Hammond, P. Nichols,
          S. Hirata, M. T. Hackler, Y. Zhao, P.-D. Fan, R. J. Harrison,
          M. Dupuis, D. M. A. Smith, J. Nieplocha, V. Tipparaju, M. Krishnan,
          Q. Wu, T. Van Voorhis, A. A. Auer, M. Nooijen,L. D. Crosby,
          E. Brown, G. Cisneros, G. I. Fann, H. Fruchtl, J. Garza, K. Hirao,
          R. Kendall, J. A. Nichols, K. Tsemekhman, K. Wolinski, J. Anchell,
          D. Bernholdt, P. Borowski, T. Clark, D. Clerc, H. Dachsel, M. Deegan,
          K. Dyall, D. Elwood, E. Glendening, M. Gutowski, A. Hess, J. Jaffe,
          B. Johnson, J. Ju, R. Kobayashi, R. Kutteh, Z. Lin, R. Littlefield,
          X. Long, B. Meng, T. Nakajima, S. Niu, L. Pollack, M. Rosing,
          G. Sandrone, M. Stave, H. Taylor, G. Thomas, J. van Lenthe, A. Wong,
          and Z. Zhang,
          "NWChem, A Computational Chemistry Package for Parallel Computers, 
          Version 5.1.1" (2008),
                      Pacific Northwest National Laboratory,
                      Richland, Washington 99352-0999, USA.



 Total times  cpu:       18.9s     wall:       19.3s
MA_summarize_allocated_blocks: starting scan ...
MA_summarize_allocated_blocks: scan completed: 0 heap blocks, 0 stack blocks
MA usage statistics:

	allocation statistics:
					      heap	     stack
					      ----	     -----
	current number of blocks	         0	         0
	maximum number of blocks	        24	        36
	current total bytes		         0	         0
	maximum total bytes		  14172912	  66602048
	maximum total K-bytes		     14173	     66603
	maximum total M-bytes		        15	        67
