1         ******************************************************
          *            GAMESS VERSION = 31 OCT 1996            *
          *             FROM IOWA STATE UNIVERSITY             *
          * M.W.SCHMIDT, K.K.BALDRIDGE, J.A.BOATZ, S.T.ELBERT, *
          *   M.S.GORDON, J.H.JENSEN, S.KOSEKI, N.MATSUNAGA,   *
          *          K.A.NGUYEN, S.J.SU, T.L.WINDUS,           *
          *       TOGETHER WITH M.DUPUIS, J.A.MONTGOMERY       *
          *         J.COMPUT.CHEM.  14, 1347-1363(1993)        *
          *************** CRAY T3D/T3E VERSION *****************

 PARALLEL VERSION RUNNING WITH  16 PROCESSORS

 EXECUTION OF GAMESS BEGUN 00:38:56        05/08/97

            ECHO OF THE FIRST FEW INPUT CARDS -
 INPUT CARD>!                                                                               
 INPUT CARD>!  pXPhN-pXBenzaz, singlet                                                      
 INPUT CARD>!  UHF/cc-pVDZ singlet point for starting orbitals                              
 INPUT CARD>!                                                                               
 INPUT CARD> $SYSTEM  MEMORY=8000000  $END                                                  
 INPUT CARD> $CONTRL  SCFTYP=uhf RUNTYP=hessian EXETYP=run  $END                            
 INPUT CARD> $GUESS   GUESS=moread NORB=130  $END                                           
 INPUT CARD> $CONTRL  COORD=unique ICHARG=0 MULT=1  $END                                    
 INPUT CARD>! Geometry: Gaussian94 BLYP/3-21G                                               
 INPUT CARD>! Basis: cc-pVDZ                                                                
 INPUT CARD> $DATA                                                                          
 INPUT CARD>pXPhN-pXBenzaz, singlet                                                         
 INPUT CARD>C1                                                                              
 INPUT CARD>C 6.0 -0.361208 -1.193683 -0.292309                                             
 INPUT CARD>      S   9                                                                     
 INPUT CARD>	1   6665.00000000          0.00069200                                          
 INPUT CARD>	2   1000.00000000          0.00532900                                          
 INPUT CARD>	3    228.00000000          0.02707700                                          
 INPUT CARD>	4     64.71000000          0.10171800                                          
 INPUT CARD>	5     21.06000000          0.27474000                                          
 INPUT CARD>	6      7.49500000          0.44856400                                          
 INPUT CARD>	7      2.79700000          0.28507400                                          
 INPUT CARD>	8      0.52150000          0.01520400                                          
 INPUT CARD>	9      0.15960000         -0.00319100                                          
 INPUT CARD>      S   9                                                                     
 INPUT CARD>	1   6665.00000000         -0.00014600                                          
 INPUT CARD>	2   1000.00000000         -0.00115400                                          
 INPUT CARD>	3    228.00000000         -0.00572500                                          
 INPUT CARD>	4     64.71000000         -0.02331200                                          
 INPUT CARD>	5     21.06000000         -0.06395500                                          
 INPUT CARD>	6      7.49500000         -0.14998100                                          
 INPUT CARD>	7      2.79700000         -0.12726200                                          
 INPUT CARD>	8      0.52150000          0.54452900                                          
 INPUT CARD>	9      0.15960000          0.58049600                                          
 INPUT CARD>      S   1                                                                     
 INPUT CARD>	1      0.15960000          1.00000000                                          
 INPUT CARD>      P   4                                                                     
 INPUT CARD>	1      9.43900000          0.03810900                                          
 INPUT CARD>	2      2.00200000          0.20948000                                          
 INPUT CARD>	3      0.54560000          0.50855700                                          
 INPUT CARD>	4      0.15170000          0.46884200                                          
 INPUT CARD>      P   1                                                                     
 INPUT CARD>	1      0.15170000          1.00000000                                          
 INPUT CARD>      D   1                                                                     
 INPUT CARD>	1      0.55000000          1.00000000                                          
 INPUT CARD>                                                                                
 INPUT CARD>C 6.0 1.041310 -1.157604 -0.103740                                              
 INPUT CARD>      S   9                                                                     
 INPUT CARD>	1   6665.00000000          0.00069200                                          
 INPUT CARD>	2   1000.00000000          0.00532900                                          
    8000000 WORDS OF MEMORY AVAILABLE


     RUN TITLE
     ---------
 pXPhN-pXBenzaz, singlet                                                         

 THE POINT GROUP OF THE MOLECULE IS C1      
 THE ORDER OF THE PRINCIPAL AXIS IS     0

 ATOM      ATOMIC                      COORDINATES (BOHR)
           CHARGE         X                   Y                   Z
 C           6.0    -0.6825841446       -2.2557337862       -0.5523839137
 C           6.0     1.9677905683       -2.1875543623       -0.1960401740
 H           1.0     3.0696009746       -3.9316013736       -0.2819924708
 C           6.0     3.1871551591        0.1506773016       -0.0839699743
 H           1.0     5.2440255207        0.2405281032        0.0105352224
 C           6.0    -2.1236721753        0.1020376444        0.0842704407
 C           6.0     1.7773364243        2.4848536136       -0.3183715858
 H           1.0     2.8287440591        4.2475767868       -0.5269557609
 C           6.0    -0.8188768520        2.5292017031       -0.2681710149
 H           1.0    -1.8897411055        4.2774250088       -0.4769025886
 N           7.0    -3.9086846666       -0.8317610038        1.4705280719
 H           1.0    -1.7347344417       -3.9525017430       -1.0103797939

          INTERNUCLEAR DISTANCES (ANGS.)
          ------------------------------

                    C              C              H              C              H              C              C         

  1  C               0.0000000      1.4155976 *    2.1793198 *    2.4241348 *    3.4160801      1.5005837 *    2.8289531 *  
  2  C               1.4155976 *    0.0000000      1.0926035 *    1.3967410 *    2.1607010 *    2.4854928 *    2.4754318 *  
  3  H               2.1793198 *    1.0926035 *    0.0000000      2.1636835 *    2.4944609 *    3.4851245      3.4636729    
  4  C               2.4241348 *    1.3967410 *    2.1636835 *    0.0000000      1.0906342 *    2.8118966 *    1.4483333 *  
  5  H               3.4160801      2.1607010 *    2.4944609 *    1.0906342 *    0.0000000      3.8997019      2.1922958 *  
  6  C               1.5005837 *    2.4854928 *    3.4851245      2.8118966 *    3.8997019      0.0000000      2.4283298 *  
  7  C               2.8289531 *    2.4754318 *    3.4636729      1.4483333 *    2.1922958 *    2.4283298 *    0.0000000    
  8  H               3.9110144      3.4401267      4.3320511      2.1888552 *    2.4921338 *    3.4329502      1.0917170 *  
  9  C               2.5375669 *    2.8993170 *    3.9903764      2.4673283 *    3.4325004      1.4701065 *    1.3743142 *  
 10  H               3.5159474      3.9866190      5.0762740      3.4684054      4.3452109      2.2328207 *    2.1616034 *  
 11  N               2.1513249 *    3.3110002      4.1457520      3.8790025      4.9373538      1.2940477 *    3.6097077    
 12  H               1.0839485 *    2.2128773 *    2.5714216 *    3.4261647      4.3420552      2.2319001 *    3.8977438    

                    H              C              H              N              H         

  1  C               3.9110144      2.5375669 *    3.5159474      2.1513249 *    1.0839485 *  
  2  C               3.4401267      2.8993170 *    3.9866190      3.3110002      2.2128773 *  
  3  H               4.3320511      3.9903764      5.0762740      4.1457520      2.5714216 *  
  4  C               2.1888552 *    2.4673283 *    3.4684054      3.8790025      3.4261647    
  5  H               2.4921338 *    3.4325004      4.3452109      4.9373538      4.3420552    
  6  C               3.4329502      1.4701065 *    2.2328207 *    1.2940477 *    2.2319001 *  
  7  C               1.0917170 *    1.3743142 *    2.1616034 *    3.6097077      3.8977438    
  8  H               0.0000000      2.1380936 *    2.4971054 *    4.5883836      4.9725861    
  9  C               2.1380936 *    0.0000000      1.0904909 *    2.5851843 *    3.4862360    
 10  H               2.4971054 *    1.0904909 *    0.0000000      3.0843545      4.3650009    
 11  N               4.5883836      2.5851843 *    3.0843545      0.0000000      2.4029534 *  
 12  H               4.9725861      3.4862360      4.3650009      2.4029534 *    0.0000000    

  * ... LESS THAN  3.000


     ATOMIC BASIS SET
     ----------------
 THE CONTRACTED PRIMITIVE FUNCTIONS HAVE BEEN UNNORMALIZED
 THE CONTRACTED BASIS FUNCTIONS ARE NOW NORMALIZED TO UNITY

 SHELL TYPE PRIM    EXPONENT          CONTRACTION COEFFICIENTS

 C         

   1   S    1    6665.000000    0.363803 (  0.000692) 
   1   S    2    1000.000000    0.675392 (  0.005329) 
   1   S    3     228.000000    1.132301 (  0.027077) 
   1   S    4      64.710000    1.654004 (  0.101718) 
   1   S    5      21.060000    1.924978 (  0.274740) 
   1   S    6       7.495000    1.448149 (  0.448564) 
   1   S    7       2.797000    0.439427 (  0.285074) 
   1   S    8       0.521500    0.006650 (  0.015204) 
   1   S    9       0.159600   -0.000574 ( -0.003191) 

   2   S   10    6665.000000   -0.076756 ( -0.000146) 
   2   S   11    1000.000000   -0.146257 ( -0.001154) 
   2   S   12     228.000000   -0.239407 ( -0.005725) 
   2   S   13      64.710000   -0.379069 ( -0.023312) 
   2   S   14      21.060000   -0.448104 ( -0.063955) 
   2   S   15       7.495000   -0.484201 ( -0.149981) 
   2   S   16       2.797000   -0.196168 ( -0.127262) 
   2   S   17       0.521500    0.238162 (  0.544529) 
   2   S   18       0.159600    0.104468 (  0.580496) 

   3   S   19       0.159600    0.179964 (  1.000000) 

   4   P   20       9.439000    0.898722 (  0.038109) 
   4   P   21       2.002000    0.711071 (  0.209480) 
   4   P   22       0.545600    0.339917 (  0.508557) 
   4   P   23       0.151700    0.063270 (  0.468842) 

   5   P   24       0.151700    0.134950 (  1.000000) 

   6   D   25       0.550000    0.578155 (  1.000000) 

 C         

   7   S   26    6665.000000    0.363803 (  0.000692) 
   7   S   27    1000.000000    0.675392 (  0.005329) 
   7   S   28     228.000000    1.132301 (  0.027077) 
   7   S   29      64.710000    1.654004 (  0.101718) 
   7   S   30      21.060000    1.924978 (  0.274740) 
   7   S   31       7.495000    1.448149 (  0.448564) 
   7   S   32       2.797000    0.439427 (  0.285074) 
   7   S   33       0.521500    0.006650 (  0.015204) 
   7   S   34       0.159600   -0.000574 ( -0.003191) 

   8   S   35    6665.000000   -0.076756 ( -0.000146) 
   8   S   36    1000.000000   -0.146257 ( -0.001154) 
   8   S   37     228.000000   -0.239407 ( -0.005725) 
   8   S   38      64.710000   -0.379069 ( -0.023312) 
   8   S   39      21.060000   -0.448104 ( -0.063955) 
   8   S   40       7.495000   -0.484201 ( -0.149981) 
   8   S   41       2.797000   -0.196168 ( -0.127262) 
   8   S   42       0.521500    0.238162 (  0.544529) 
   8   S   43       0.159600    0.104468 (  0.580496) 

   9   S   44       0.159600    0.179964 (  1.000000) 

  10   P   45       9.439000    0.898722 (  0.038109) 
  10   P   46       2.002000    0.711071 (  0.209480) 
  10   P   47       0.545600    0.339917 (  0.508557) 
  10   P   48       0.151700    0.063270 (  0.468842) 

  11   P   49       0.151700    0.134950 (  1.000000) 

  12   D   50       0.550000    0.578155 (  1.000000) 

 H         

  13   S   51      13.010000    0.096107 (  0.019685) 
  13   S   52       1.962000    0.163020 (  0.137977) 
  13   S   53       0.444600    0.185545 (  0.478148) 
  13   S   54       0.122000    0.073744 (  0.501240) 

  14   S   55       0.122000    0.147123 (  1.000000) 

  15   P   56       0.727000    0.956881 (  1.000000) 

 C         

  16   S   57    6665.000000    0.363803 (  0.000692) 
  16   S   58    1000.000000    0.675392 (  0.005329) 
  16   S   59     228.000000    1.132301 (  0.027077) 
  16   S   60      64.710000    1.654004 (  0.101718) 
  16   S   61      21.060000    1.924978 (  0.274740) 
  16   S   62       7.495000    1.448149 (  0.448564) 
  16   S   63       2.797000    0.439427 (  0.285074) 
  16   S   64       0.521500    0.006650 (  0.015204) 
  16   S   65       0.159600   -0.000574 ( -0.003191) 

  17   S   66    6665.000000   -0.076756 ( -0.000146) 
  17   S   67    1000.000000   -0.146257 ( -0.001154) 
  17   S   68     228.000000   -0.239407 ( -0.005725) 
  17   S   69      64.710000   -0.379069 ( -0.023312) 
  17   S   70      21.060000   -0.448104 ( -0.063955) 
  17   S   71       7.495000   -0.484201 ( -0.149981) 
  17   S   72       2.797000   -0.196168 ( -0.127262) 
  17   S   73       0.521500    0.238162 (  0.544529) 
  17   S   74       0.159600    0.104468 (  0.580496) 

  18   S   75       0.159600    0.179964 (  1.000000) 

  19   P   76       9.439000    0.898722 (  0.038109) 
  19   P   77       2.002000    0.711071 (  0.209480) 
  19   P   78       0.545600    0.339917 (  0.508557) 
  19   P   79       0.151700    0.063270 (  0.468842) 

  20   P   80       0.151700    0.134950 (  1.000000) 

  21   D   81       0.550000    0.578155 (  1.000000) 

 H         

  22   S   82      13.010000    0.096107 (  0.019685) 
  22   S   83       1.962000    0.163020 (  0.137977) 
  22   S   84       0.444600    0.185545 (  0.478148) 
  22   S   85       0.122000    0.073744 (  0.501240) 

  23   S   86       0.122000    0.147123 (  1.000000) 

  24   P   87       0.727000    0.956881 (  1.000000) 

 C         

  25   S   88    6665.000000    0.363803 (  0.000692) 
  25   S   89    1000.000000    0.675392 (  0.005329) 
  25   S   90     228.000000    1.132301 (  0.027077) 
  25   S   91      64.710000    1.654004 (  0.101718) 
  25   S   92      21.060000    1.924978 (  0.274740) 
  25   S   93       7.495000    1.448149 (  0.448564) 
  25   S   94       2.797000    0.439427 (  0.285074) 
  25   S   95       0.521500    0.006650 (  0.015204) 
  25   S   96       0.159600   -0.000574 ( -0.003191) 

  26   S   97    6665.000000   -0.076756 ( -0.000146) 
  26   S   98    1000.000000   -0.146257 ( -0.001154) 
  26   S   99     228.000000   -0.239407 ( -0.005725) 
  26   S  100      64.710000   -0.379069 ( -0.023312) 
  26   S  101      21.060000   -0.448104 ( -0.063955) 
  26   S  102       7.495000   -0.484201 ( -0.149981) 
  26   S  103       2.797000   -0.196168 ( -0.127262) 
  26   S  104       0.521500    0.238162 (  0.544529) 
  26   S  105       0.159600    0.104468 (  0.580496) 

  27   S  106       0.159600    0.179964 (  1.000000) 

  28   P  107       9.439000    0.898722 (  0.038109) 
  28   P  108       2.002000    0.711071 (  0.209480) 
  28   P  109       0.545600    0.339917 (  0.508557) 
  28   P  110       0.151700    0.063270 (  0.468842) 

  29   P  111       0.151700    0.134950 (  1.000000) 

  30   D  112       0.550000    0.578155 (  1.000000) 

 C         

  31   S  113    6665.000000    0.363803 (  0.000692) 
  31   S  114    1000.000000    0.675392 (  0.005329) 
  31   S  115     228.000000    1.132301 (  0.027077) 
  31   S  116      64.710000    1.654004 (  0.101718) 
  31   S  117      21.060000    1.924978 (  0.274740) 
  31   S  118       7.495000    1.448149 (  0.448564) 
  31   S  119       2.797000    0.439427 (  0.285074) 
  31   S  120       0.521500    0.006650 (  0.015204) 
  31   S  121       0.159600   -0.000574 ( -0.003191) 

  32   S  122    6665.000000   -0.076756 ( -0.000146) 
  32   S  123    1000.000000   -0.146257 ( -0.001154) 
  32   S  124     228.000000   -0.239407 ( -0.005725) 
  32   S  125      64.710000   -0.379069 ( -0.023312) 
  32   S  126      21.060000   -0.448104 ( -0.063955) 
  32   S  127       7.495000   -0.484201 ( -0.149981) 
  32   S  128       2.797000   -0.196168 ( -0.127262) 
  32   S  129       0.521500    0.238162 (  0.544529) 
  32   S  130       0.159600    0.104468 (  0.580496) 

  33   S  131       0.159600    0.179964 (  1.000000) 

  34   P  132       9.439000    0.898722 (  0.038109) 
  34   P  133       2.002000    0.711071 (  0.209480) 
  34   P  134       0.545600    0.339917 (  0.508557) 
  34   P  135       0.151700    0.063270 (  0.468842) 

  35   P  136       0.151700    0.134950 (  1.000000) 

  36   D  137       0.550000    0.578155 (  1.000000) 

 H         

  37   S  138      13.010000    0.096107 (  0.019685) 
  37   S  139       1.962000    0.163020 (  0.137977) 
  37   S  140       0.444600    0.185545 (  0.478148) 
  37   S  141       0.122000    0.073744 (  0.501240) 

  38   S  142       0.122000    0.147123 (  1.000000) 

  39   P  143       0.727000    0.956881 (  1.000000) 

 C         

  40   S  144    6665.000000    0.363803 (  0.000692) 
  40   S  145    1000.000000    0.675392 (  0.005329) 
  40   S  146     228.000000    1.132301 (  0.027077) 
  40   S  147      64.710000    1.654004 (  0.101718) 
  40   S  148      21.060000    1.924978 (  0.274740) 
  40   S  149       7.495000    1.448149 (  0.448564) 
  40   S  150       2.797000    0.439427 (  0.285074) 
  40   S  151       0.521500    0.006650 (  0.015204) 
  40   S  152       0.159600   -0.000574 ( -0.003191) 

  41   S  153    6665.000000   -0.076756 ( -0.000146) 
  41   S  154    1000.000000   -0.146257 ( -0.001154) 
  41   S  155     228.000000   -0.239407 ( -0.005725) 
  41   S  156      64.710000   -0.379069 ( -0.023312) 
  41   S  157      21.060000   -0.448104 ( -0.063955) 
  41   S  158       7.495000   -0.484201 ( -0.149981) 
  41   S  159       2.797000   -0.196168 ( -0.127262) 
  41   S  160       0.521500    0.238162 (  0.544529) 
  41   S  161       0.159600    0.104468 (  0.580496) 

  42   S  162       0.159600    0.179964 (  1.000000) 

  43   P  163       9.439000    0.898722 (  0.038109) 
  43   P  164       2.002000    0.711071 (  0.209480) 
  43   P  165       0.545600    0.339917 (  0.508557) 
  43   P  166       0.151700    0.063270 (  0.468842) 

  44   P  167       0.151700    0.134950 (  1.000000) 

  45   D  168       0.550000    0.578155 (  1.000000) 

 H         

  46   S  169      13.010000    0.096107 (  0.019685) 
  46   S  170       1.962000    0.163020 (  0.137977) 
  46   S  171       0.444600    0.185545 (  0.478148) 
  46   S  172       0.122000    0.073744 (  0.501240) 

  47   S  173       0.122000    0.147123 (  1.000000) 

  48   P  174       0.727000    0.956881 (  1.000000) 

 N         

  49   S  175    9046.000000    0.462754 (  0.000700) 
  49   S  176    1357.000000    0.858723 (  0.005389) 
  49   S  177     309.300000    1.440591 (  0.027406) 
  49   S  178      87.730000    2.108533 (  0.103207) 
  49   S  179      28.560000    2.454153 (  0.278723) 
  49   S  180      10.210000    1.825915 (  0.448540) 
  49   S  181       3.838000    0.543758 (  0.278238) 
  49   S  182       0.746600    0.008838 (  0.015440) 
  49   S  183       0.224800   -0.000666 ( -0.002864) 

  50   S  184    9046.000000   -0.101145 ( -0.000153) 
  50   S  185    1357.000000   -0.192492 ( -0.001208) 
  50   S  186     309.300000   -0.314968 ( -0.005992) 
  50   S  187      87.730000   -0.501437 ( -0.024544) 
  50   S  188      28.560000   -0.593976 ( -0.067459) 
  50   S  189      10.210000   -0.643503 ( -0.158078) 
  50   S  190       3.838000   -0.238093 ( -0.121831) 
  50   S  191       0.746600    0.314268 (  0.549003) 
  50   S  192       0.224800    0.134678 (  0.578815) 

  51   S  193       0.224800    0.232679 (  1.000000) 

  52   P  194      13.550000    1.479258 (  0.039919) 
  52   P  195       2.917000    1.180072 (  0.217169) 
  52   P  196       0.797300    0.548036 (  0.510319) 
  52   P  197       0.218500    0.098423 (  0.462214) 

  53   P  198       0.218500    0.212939 (  1.000000) 

  54   D  199       0.817000    1.155575 (  1.000000) 

 H         

  55   S  200      13.010000    0.096107 (  0.019685) 
  55   S  201       1.962000    0.163020 (  0.137977) 
  55   S  202       0.444600    0.185545 (  0.478148) 
  55   S  203       0.122000    0.073744 (  0.501240) 

  56   S  204       0.122000    0.147123 (  1.000000) 

  57   P  205       0.727000    0.956881 (  1.000000) 

 TOTAL NUMBER OF SHELLS              =   57
 TOTAL NUMBER OF BASIS FUNCTIONS     =  130
 NUMBER OF ELECTRONS                 =   48
 CHARGE OF MOLECULE                  =    0
 STATE MULTIPLICITY                  =    1
 NUMBER OF OCCUPIED ORBITALS (ALPHA) =   24
 NUMBER OF OCCUPIED ORBITALS (BETA ) =   24
 TOTAL NUMBER OF ATOMS               =   12
 THE NUCLEAR REPULSION ENERGY IS      249.8846990602

     ------------------------------------------
     THE POINT GROUP IS C1 , NAXIS= 0, ORDER= 1
     ------------------------------------------

     DIMENSIONS OF THE SYMMETRY SUBSPACES ARE
 A   = 130

     $CONTRL OPTIONS
     ---------------
     SCFTYP=UHF          RUNTYP=HESSIAN      EXETYP=RUN     
     MPLEVL=       0     LOCAL =NONE         UNITS =ANGS    
     MULT  =       1     ICHARG=       0     MAXIT =      30
     NPRINT=       7     IREST =       0     COORD =UNIQUE  
     ECP   =NONE         NORMF =       0     NORMP =       0
     ITOL  =      20     ICUT  =       9     NZVAR =       0
     NOSYM =       0     INTTYP=POPLE        GEOM  =INPUT   
     PLTORB=       F     MOLPLT=       F     RPAC  =       F
     AIMPAC=       F     FRIEND=             CITYP =NONE    

     $SYSTEM OPTIONS
     ---------------
     KDIAG =       0     MEMORY= 8000000     TIMLIM=    36000.0 SEC.
     COREFL=       F     PTIME =       F     XDR   =       F
     BALTYP=LOOP    

          ----------------
          PROPERTIES INPUT
          ----------------

     MOMENTS            FIELD           POTENTIAL          DENSITY
 IEMOM =       1   IEFLD =       0   IEPOT =       0   IEDEN =       0
 WHERE =COMASS     WHERE =NUCLEI     WHERE =NUCLEI     WHERE =NUCLEI  
 OUTPUT=BOTH       OUTPUT=BOTH       OUTPUT=BOTH       OUTPUT=BOTH    
 IEMINT=       0   IEFINT=       0                     IEDINT=       0
                                                       MORB  =       0
          EXTRAPOLATION IN EFFECT
          DIIS IN EFFECT

          ----------------------
          INTEGRAL INPUT OPTIONS
          ----------------------
 NOPK  =       0 NORDER=       0 SCHWRZ=       T

     -------------------------------
     INTEGRAL TRANSFORMATION OPTIONS
     -------------------------------
     NWORD  =       0     CUTOFF = 1.0E-09
     MPTRAN =       0     DIRTRF =       F
     AOINTS =DIST    

 ..... DONE SETTING UP THE RUN .....

        STEP CPU TIME =    2.18  TOTAL CPU TIME =       2.2   (   0.0 MIN) IS 25.18 PERCENT OF REAL TIME OF       8.7

     ---------------------------------
     HESSIAN MATRIX CONTROL PARAMETERS
     ---------------------------------
     METHOD=NUMERIC    NVIB  =       1   VIBSIZ= 0.01000
     RDHESS=       F   PURIFY=       F   PRTIFC=       F
     VIBANL=       T   DECOMP=       F   PROJCT=       F
     SCLFAC= 1.00000   PRTSCN=       F   NPRT  =       0
     PULCOR=       F   NPUN  =       0   REDOVB=       T
     THERMOCHEMISTRY WILL BE PRINTED FOR    1 TEMPERATURES:
      298.15000
1   ATOM  0
                                        -------------------
   COORD  0                             NUCLEAR COORDINATES
                                        -------------------
     VIB  0

                       ATOM             X              Y              Z

                 1  C               -0.682584      -2.255734      -0.552384
                 2  C                1.967791      -2.187554      -0.196040
                 3  H                3.069601      -3.931601      -0.281992
                 4  C                3.187155       0.150677      -0.083970
                 5  H                5.244026       0.240528       0.010535
                 6  C               -2.123672       0.102038       0.084270
                 7  C                1.777336       2.484854      -0.318372
                 8  H                2.828744       4.247577      -0.526956
                 9  C               -0.818877       2.529202      -0.268171
                10  H               -1.889741       4.277425      -0.476903
                11  N               -3.908685      -0.831761       1.470528
                12  H               -1.734734      -3.952502      -1.010380

          ********************
          1 ELECTRON INTEGRALS
          ********************
 ...... END OF ONE-ELECTRON INTEGRALS ......

        STEP CPU TIME =    0.35  TOTAL CPU TIME =       2.6   (   0.0 MIN) IS 25.19 PERCENT OF REAL TIME OF      10.1

          GUESS OPTIONS
          -------------
          GUESS =MOREAD  
          NORB  =     130          NORDER=       0
          TOLZ  = 1.0E-08          TOLE  = 1.0E-05
          MIX   =       F          PRTMO =       F

 INITIAL GUESS ORBITALS GENERATED BY MOREAD   ROUTINE.

 SYMMETRIES FOR INITIAL GUESS ORBITALS FOLLOW.  ALPHA SET(S).
    24 ORBITALS ARE OCCUPIED (    7 CORE ORBITALS).
     8=A        9=A       10=A       11=A       12=A       13=A   
    14=A       15=A       16=A       17=A       18=A       19=A   
    20=A       21=A       22=A       23=A       24=A       25=A   
    26=A       27=A       28=A       29=A       30=A       31=A   
    32=A       33=A       34=A   

 SYMMETRIES FOR INITIAL GUESS ORBITALS FOLLOW.   BETA SET(S).
    24 ORBITALS ARE OCCUPIED (    7 CORE ORBITALS).
     8=A        9=A       10=A       11=A       12=A       13=A   
    14=A       15=A       16=A       17=A       18=A       19=A   
    20=A       21=A       22=A       23=A       24=A       25=A   
    26=A       27=A       28=A       29=A       30=A       31=A   
    32=A       33=A       34=A   
 ...... END OF INITIAL ORBITAL SELECTION ......

        STEP CPU TIME =    2.28  TOTAL CPU TIME =       4.8   (   0.1 MIN) IS 32.92 PERCENT OF REAL TIME OF      14.7

          --------------------
          2 ELECTRON INTEGRALS
          --------------------

 THE -PK- OPTION IS ON, CREATING -P- AND -K- SUPERMATRICES.
 STORING   10000 INTEGRALS/RECORD ON DISK, USING 24 BYTES/INTEGRAL.
 TWO ELECTRON INTEGRAL EVALUATION REQUIRES   59941 WORDS OF MEMORY.
 SCHWARZ INEQUALITY OVERHEAD:      8461 INTEGRALS, T=        0.05
 II,JST,KST,LST =  1  1  1  1 NREC =         1 INTLOC =    1
 II,JST,KST,LST =  2  1  1  1 NREC =         1 INTLOC =    2
 II,JST,KST,LST =  3  1  1  1 NREC =         1 INTLOC =    2
 II,JST,KST,LST =  4  1  1  1 NREC =         1 INTLOC =    2
 II,JST,KST,LST =  5  1  1  1 NREC =         1 INTLOC =    2
 II,JST,KST,LST =  6  1  1  1 NREC =         1 INTLOC =   38
 II,JST,KST,LST =  7  1  1  1 NREC =         1 INTLOC =   83
 II,JST,KST,LST =  8  1  1  1 NREC =         1 INTLOC =  187
 II,JST,KST,LST =  9  1  1  1 NREC =         1 INTLOC =  294
 II,JST,KST,LST = 10  1  1  1 NREC =         1 INTLOC =  578
 II,JST,KST,LST = 11  1  1  1 NREC =         1 INTLOC = 1358
 II,JST,KST,LST = 12  1  1  1 NREC =         1 INTLOC = 2843
 II,JST,KST,LST = 13  1  1  1 NREC =         1 INTLOC = 7388
 II,JST,KST,LST = 14  1  1  1 NREC =         1 INTLOC = 8237
 II,JST,KST,LST = 15  1  1  1 NREC =         1 INTLOC = 9046
 II,JST,KST,LST = 16  1  1  1 NREC =         2 INTLOC = 2199
 II,JST,KST,LST = 17  1  1  1 NREC =         2 INTLOC = 3648
 II,JST,KST,LST = 18  1  1  1 NREC =         2 INTLOC = 5257
 II,JST,KST,LST = 19  1  1  1 NREC =         2 INTLOC = 6787
 II,JST,KST,LST = 20  1  1  1 NREC =         3 INTLOC = 2286
 II,JST,KST,LST = 21  1  1  1 NREC =         3 INTLOC = 9174
 II,JST,KST,LST = 22  1  1  1 NREC =         5 INTLOC = 8203
 II,JST,KST,LST = 23  1  1  1 NREC =         6 INTLOC = 2019
 II,JST,KST,LST = 24  1  1  1 NREC =         6 INTLOC = 6860
 II,JST,KST,LST = 25  1  1  1 NREC =         8 INTLOC = 1188
 II,JST,KST,LST = 26  1  1  1 NREC =         8 INTLOC = 6783
 II,JST,KST,LST = 27  1  1  1 NREC =         9 INTLOC = 2583
 II,JST,KST,LST = 28  1  1  1 NREC =         9 INTLOC = 8711
 II,JST,KST,LST = 29  1  1  1 NREC =        11 INTLOC = 7554
 II,JST,KST,LST = 30  1  1  1 NREC =        14 INTLOC = 1056
 II,JST,KST,LST = 31  1  1  1 NREC =        20 INTLOC = 2102
 II,JST,KST,LST = 32  1  1  1 NREC =        21 INTLOC = 3772
 II,JST,KST,LST = 33  1  1  1 NREC =        22 INTLOC = 5917
 II,JST,KST,LST = 34  1  1  1 NREC =        23 INTLOC = 8539
 II,JST,KST,LST = 35  1  1  1 NREC =        27 INTLOC = 9162
 II,JST,KST,LST = 36  1  1  1 NREC =        32 INTLOC = 1879
 II,JST,KST,LST = 37  1  1  1 NREC =        42 INTLOC = 4716
 II,JST,KST,LST = 38  1  1  1 NREC =        44 INTLOC = 4235
 II,JST,KST,LST = 39  1  1  1 NREC =        46 INTLOC = 5035
 II,JST,KST,LST = 40  1  1  1 NREC =        52 INTLOC = 8989
 II,JST,KST,LST = 41  1  1  1 NREC =        55 INTLOC = 3041
 II,JST,KST,LST = 42  1  1  1 NREC =        57 INTLOC = 7274
 II,JST,KST,LST = 43  1  1  1 NREC =        60 INTLOC = 1772
 II,JST,KST,LST = 44  1  1  1 NREC =        68 INTLOC = 1654
 II,JST,KST,LST = 45  1  1  1 NREC =        77 INTLOC = 1857
 II,JST,KST,LST = 46  1  1  1 NREC =        97 INTLOC =  649
 II,JST,KST,LST = 47  1  1  1 NREC =       100 INTLOC = 7335
 II,JST,KST,LST = 48  1  1  1 NREC =       104 INTLOC = 5031
 II,JST,KST,LST = 49  1  1  1 NREC =       116 INTLOC = 4909
 II,JST,KST,LST = 50  1  1  1 NREC =       120 INTLOC = 6491
 II,JST,KST,LST = 51  1  1  1 NREC =       124 INTLOC = 9254
 II,JST,KST,LST = 52  1  1  1 NREC =       129 INTLOC = 3869
 II,JST,KST,LST = 53  1  1  1 NREC =       143 INTLOC = 8123
 II,JST,KST,LST = 54  1  1  1 NREC =       159 INTLOC = 3704
 II,JST,KST,LST = 55  1  1  1 NREC =       193 INTLOC = 9267
 II,JST,KST,LST = 56  1  1  1 NREC =       200 INTLOC = 1173
 II,JST,KST,LST = 57  1  1  1 NREC =       206 INTLOC = 5610
 SCHWARZ INEQUALITY TEST SKIPPED     21863 INTEGRAL BLOCKS.
 TOTAL NUMBER OF NONZERO TWO-ELECTRON INTEGRALS =            36036752
       3612 INTEGRAL RECORDS WERE STORED ON DISK FILE  8.
  ...... END OF TWO-ELECTRON INTEGRALS .....

        STEP CPU TIME =   41.33  TOTAL CPU TIME =      46.2   (   0.8 MIN) IS 47.74 PERCENT OF REAL TIME OF      96.7

          -------------------
          UHF SCF CALCULATION
          -------------------

     NUCLEAR ENERGY =       249.8846990602
     MAXIT = 30     NPUNCH=  2     MULT=  1
     EXTRAP=T  DAMP=F  SHIFT=F  RSTRCT=F  DIIS=T  SOSCF=F
     DENSITY CONV=  1.00E-05
     MEMORY REQUIRED FOR UHF/ROHF STEP=    185635 WORDS.

 ITER EX   TOTAL ENERGY      E CHANGE  DENSITY CHANGE    DIIS ERROR
          * * *   INITIATING DIIS PROCEDURE   * * *
   1  0  -284.434072561  -284.434072561   0.000001387   0.000000378
   2  1  -284.434072561     0.000000000   0.000001063   0.000000314

          -----------------
          DENSITY CONVERGED
          -----------------

 FINAL ENERGY IS     -284.4340725614 AFTER   2 ITERATIONS

          --------------------
          SPIN SZ   =    0.000
          S-SQUARED =    0.000
          --------------------

  ----- ALPHA SET ----- 

          ------------
          EIGENVECTORS
          ------------

                      1          2          3          4          5          6          7          8          9         10
                  -15.5827   -11.2952   -11.2902   -11.2821   -11.2765   -11.2713   -11.2657    -1.2088    -1.1206    -1.0392
                     A          A          A          A          A          A          A          A          A          A   
    1  C    1 S  -0.000184   0.072839   0.997830  -0.001984   0.001111   0.000410  -0.021743  -0.007359  -0.002324   0.009737
    2  C      S  -0.000644   0.000833   0.007695   0.000165  -0.000010  -0.000068   0.000087   0.303924   0.116296  -0.362109
    3  C      S   0.002206   0.000591  -0.003468  -0.000750  -0.000120   0.000726   0.001106  -0.102620  -0.026542   0.096458
    4  C      X   0.000048  -0.000188   0.000156   0.000062  -0.000025  -0.000013   0.000436  -0.020022   0.117563  -0.117405
    5  C      Y  -0.000083   0.000377   0.000077   0.000011  -0.000008   0.000004   0.000010   0.078300   0.000889   0.021897
    6  C      Z   0.000035   0.000073   0.000940   0.000007   0.000035   0.000004   0.000039   0.035409  -0.006249  -0.016676
    7  C      X   0.000300   0.000178  -0.000220  -0.000210  -0.000179   0.000238   0.000474   0.013924  -0.035590   0.026076
    8  C      Y   0.001049   0.000446  -0.000147  -0.000353  -0.000013   0.000253   0.000244  -0.025886  -0.001751  -0.017357
    9  C      Z   0.000286   0.000004  -0.000862  -0.000084  -0.000019   0.000071   0.000032  -0.006580   0.002208   0.004250
   10  C     XX   0.000108  -0.000354  -0.001807   0.000098   0.000000  -0.000022   0.000005   0.007602   0.008663  -0.017216
   11  C     YY   0.000026  -0.000182  -0.002000   0.000036   0.000071  -0.000035  -0.000230   0.006399  -0.001888   0.004812
   12  C     ZZ  -0.000094  -0.000223  -0.002407   0.000034  -0.000001  -0.000018   0.000003  -0.001979  -0.002972   0.005078
   13  C     XY   0.000023  -0.000058  -0.000005   0.000095   0.000008  -0.000024  -0.000003  -0.008250   0.006547  -0.001275
   14  C     XZ  -0.000138   0.000063   0.000153   0.000024  -0.000014   0.000004  -0.000008  -0.002447   0.005566  -0.003142
   15  C     YZ   0.000020  -0.000020   0.000013   0.000005   0.000022   0.000003  -0.000047   0.005313  -0.001055  -0.000535
   16  C    2 S   0.000092   0.001090   0.021495   0.036588  -0.001204  -0.005243   0.999863  -0.005283  -0.011021   0.014283
   17  C      S   0.000284   0.000016   0.000336   0.000459   0.000000   0.000077   0.008544   0.183581   0.360825  -0.469589
   18  C      S  -0.002083  -0.000411   0.000858   0.001282   0.000470  -0.000874  -0.004431  -0.066260  -0.114134   0.148384
   19  C      X   0.000007  -0.000047  -0.000373   0.000223   0.000026   0.000018  -0.000235  -0.043700   0.001601   0.062994
   20  C      Y   0.000014  -0.000033  -0.000010   0.000445   0.000035   0.000017   0.000104   0.036672   0.095737  -0.021495
   21  C      Z   0.000067  -0.000038  -0.000064   0.000034   0.000009   0.000005  -0.000040  -0.002457  -0.006167   0.013547
   22  C      X   0.000582  -0.000042  -0.000422  -0.000222  -0.000087   0.000291   0.000470   0.018505   0.003967  -0.009592
   23  C      Y  -0.001054  -0.000155   0.000087   0.000580   0.000120  -0.000302  -0.000513  -0.013550  -0.027684   0.007659
   24  C      Z  -0.000115   0.000064   0.000107  -0.000018  -0.000012   0.000020   0.000122  -0.000147   0.003336  -0.003853
   25  C     XX  -0.000015   0.000070  -0.000143  -0.000331   0.000000   0.000046  -0.002060   0.006830   0.003624  -0.014834
   26  C     YY   0.000004   0.000001  -0.000379  -0.000112  -0.000013   0.000143  -0.002142   0.001415   0.009895  -0.000668
   27  C     ZZ   0.000078  -0.000019  -0.000090  -0.000137  -0.000005   0.000030  -0.002550  -0.002472  -0.004460   0.005986
   28  C     XY   0.000025  -0.000037   0.000056   0.000221   0.000042  -0.000021   0.000064   0.000554   0.008000  -0.006266
   29  C     XZ  -0.000038   0.000026   0.000045  -0.000010   0.000002   0.000003   0.000051   0.000684   0.002126  -0.002775
   30  C     YZ  -0.000009   0.000021  -0.000034   0.000009   0.000004   0.000008   0.000033  -0.000262   0.001055  -0.000681
   31  H    3 S  -0.000059  -0.000019   0.000252   0.000260   0.000027  -0.000108   0.000713   0.034809   0.090255  -0.158226
   32  H      S  -0.000268   0.000043  -0.000058   0.000039   0.000011  -0.000006  -0.000162  -0.017026  -0.041348   0.069867
   33  H      X  -0.000018   0.000001  -0.000075  -0.000013  -0.000007   0.000023  -0.000050  -0.002363  -0.003733   0.007779
   34  H      Y   0.000026  -0.000008   0.000091   0.000105   0.000008  -0.000021   0.000079   0.002678   0.007873  -0.011099
   35  H      Z   0.000010  -0.000007  -0.000018   0.000015   0.000002  -0.000004  -0.000011   0.000043   0.000239  -0.000407
   36  C    4 S  -0.000054  -0.000571   0.001345   0.999131  -0.009648  -0.041734  -0.037175  -0.003393  -0.012922   0.004368
   37  C      S  -0.000178  -0.000116   0.000102   0.008145   0.000112  -0.000170  -0.000126   0.153294   0.450648  -0.127734
   38  C      S   0.001915   0.000700  -0.000333  -0.004031  -0.000715   0.001536   0.001646  -0.054270  -0.136710   0.024447
   39  C      X  -0.000015   0.000021  -0.000032  -0.000109  -0.000052  -0.000209  -0.000236  -0.044965  -0.091193   0.008199
   40  C      Y   0.000020   0.000015  -0.000054   0.000189   0.000060   0.000338  -0.000432  -0.006596  -0.003348   0.167839
   41  C      Z  -0.000004  -0.000020   0.000001  -0.000024   0.000005  -0.000028  -0.000019  -0.004791  -0.012980   0.001932
   42  C      X  -0.001050  -0.000290   0.000176   0.000499   0.000419  -0.000578  -0.000680   0.017119   0.021319   0.003508
   43  C      Y  -0.000160  -0.000012  -0.000169  -0.000138   0.000046   0.000161  -0.000113   0.002929   0.002917  -0.033981
   44  C      Z  -0.000054  -0.000030  -0.000042   0.000083   0.000023  -0.000045  -0.000088   0.002043   0.003500  -0.001553
   45  C     XX   0.000067  -0.000037   0.000113  -0.002106   0.000136  -0.000139  -0.000200   0.001989   0.003920   0.001437
   46  C     YY   0.000010   0.000004   0.000052  -0.001964  -0.000015  -0.000059   0.000040   0.006292   0.015628  -0.003000
   47  C     ZZ  -0.000041  -0.000035   0.000001  -0.002527   0.000055   0.000059   0.000048  -0.001950  -0.006767   0.001457
   48  C     XY  -0.000008  -0.000001   0.000072   0.000018  -0.000086  -0.000111   0.000168   0.000336  -0.000958  -0.017787
   49  C     XZ   0.000015  -0.000005   0.000003   0.000036   0.000007  -0.000003  -0.000013   0.000509   0.001528   0.000240
   50  C     YZ  -0.000020   0.000010   0.000019   0.000008   0.000007   0.000008   0.000017  -0.000275  -0.000318  -0.001801
   51  H    5 S  -0.000007   0.000034  -0.000104   0.000687  -0.000120   0.000142   0.000207   0.028816   0.117017  -0.043017
   52  H      S   0.000245   0.000053   0.000051  -0.000100  -0.000009   0.000037   0.000057  -0.014164  -0.051153   0.017851
   53  H      X   0.000047  -0.000009   0.000035  -0.000082   0.000021  -0.000076  -0.000086  -0.002854  -0.010286   0.003579
   54  H      Y   0.000008  -0.000005  -0.000011  -0.000010   0.000037   0.000020  -0.000045  -0.000191  -0.000307   0.002855
   55  H      Z   0.000001   0.000003   0.000009  -0.000011  -0.000003  -0.000005   0.000002  -0.000215  -0.000577   0.000231
   56  C    6 S   0.000066   0.997900  -0.072921   0.000531  -0.021168   0.002379   0.000485  -0.014165   0.006272  -0.001305
   57  C      S   0.000273   0.008356  -0.000297  -0.000026   0.000192   0.000163   0.000064   0.552563  -0.164479   0.098530
   58  C      S   0.000438  -0.003904   0.000680   0.000542   0.000698  -0.001005  -0.000406  -0.178797   0.046221  -0.019018
   59  C      X   0.000189   0.000238   0.000200   0.000002   0.000143   0.000016   0.000012  -0.074589   0.166037   0.010659
   60  C      Y   0.000134  -0.000224  -0.000285  -0.000019   0.000349  -0.000005  -0.000012  -0.087080   0.090743   0.149737
   61  C      Z  -0.000290   0.000020  -0.000123  -0.000011  -0.000051   0.000019  -0.000007   0.090871  -0.098232   0.001163
   62  C      X  -0.002114  -0.001479   0.000303   0.000185   0.000310  -0.000613  -0.000478   0.048546  -0.076467  -0.004602
   63  C      Y  -0.000764  -0.000560   0.000266   0.000065   0.000459  -0.000247  -0.000458   0.040863  -0.036139  -0.037575
   64  C      Z   0.001352   0.000457  -0.000086  -0.000068  -0.000139   0.000180   0.000243  -0.049752   0.039919   0.001871
   65  C     XX  -0.000660  -0.002106   0.000033  -0.000031  -0.000112   0.000133   0.000083   0.012095  -0.002881   0.002035
   66  C     YY  -0.000369  -0.002004  -0.000036   0.000011  -0.000043   0.000067   0.000029   0.008920   0.007494   0.004663
   67  C     ZZ  -0.000317  -0.002354   0.000175  -0.000009   0.000016   0.000044   0.000024  -0.002705  -0.000932  -0.001629
   68  C     XY  -0.000535   0.000219  -0.000121  -0.000005   0.000049   0.000083  -0.000046   0.009489  -0.004593   0.016512
   69  C     XZ   0.000540  -0.000270   0.000025  -0.000010   0.000050  -0.000029  -0.000026  -0.017586   0.009200  -0.000572
   70  C     YZ   0.000359  -0.000229   0.000053   0.000002   0.000016  -0.000030   0.000013  -0.010773   0.006680  -0.004182
   71  C    7 S   0.000103   0.000433  -0.000443   0.042564   0.130000   0.991358   0.003917  -0.004806  -0.012146  -0.012836
   72  C      S   0.000345   0.000046  -0.000031   0.000550   0.001264   0.008301   0.000183   0.165570   0.413008   0.383760
   73  C      S  -0.002429  -0.000818   0.000327   0.000995   0.000940  -0.004528  -0.001014  -0.050943  -0.136385  -0.106532
   74  C      X  -0.000024   0.000006   0.000015   0.000207  -0.000530   0.000119   0.000013  -0.036693  -0.024664  -0.132742
   75  C      Y  -0.000016   0.000003   0.000002  -0.000366  -0.000030  -0.000224  -0.000027  -0.034715  -0.083423   0.033182
   76  C      Z   0.000009  -0.000019   0.000007   0.000042   0.000028   0.000048  -0.000003   0.004354   0.006864   0.001675
   77  C      X   0.000829   0.000137   0.000041  -0.000031  -0.000426   0.000267   0.000236   0.012007   0.013706   0.026968
   78  C      Y   0.000929   0.000379  -0.000126  -0.000447  -0.000469   0.000726   0.000463   0.010601   0.022121  -0.017398
   79  C      Z  -0.000058   0.000022   0.000041   0.000019   0.000019  -0.000086  -0.000011  -0.002283  -0.001200  -0.000203
   80  C     XX  -0.000028   0.000078  -0.000032  -0.000323  -0.000151  -0.001990  -0.000006   0.005649   0.009978   0.017757
   81  C     YY  -0.000070   0.000050  -0.000038  -0.000205  -0.000655  -0.002098   0.000141   0.001707   0.008492  -0.007636
   82  C     ZZ   0.000085  -0.000003  -0.000004  -0.000147  -0.000383  -0.002516   0.000023  -0.002027  -0.006033  -0.005232
   83  C     XY  -0.000031   0.000068  -0.000017  -0.000123  -0.000084  -0.000069   0.000020  -0.000227  -0.008705   0.000956
   84  C     XZ   0.000007  -0.000017  -0.000002  -0.000004  -0.000018  -0.000010   0.000001  -0.000109   0.000732  -0.000317
   85  C     YZ   0.000009  -0.000002   0.000002   0.000008   0.000044  -0.000042  -0.000012  -0.000232  -0.001588   0.000272
   86  H    8 S   0.000033  -0.000097   0.000033   0.000197   0.000385   0.000680  -0.000118   0.031331   0.106921   0.132928
   87  H      S  -0.000289   0.000007  -0.000008   0.000002   0.000015  -0.000172  -0.000022  -0.014796  -0.048276  -0.056118
   88  H      X  -0.000043   0.000000  -0.000011  -0.000021  -0.000098  -0.000048   0.000035  -0.001804  -0.004499  -0.007495
   89  H      Y  -0.000039   0.000027  -0.000012  -0.000088  -0.000078  -0.000071   0.000011  -0.002414  -0.008722  -0.008519
   90  H      Z   0.000007  -0.000011  -0.000001   0.000016   0.000014   0.000005  -0.000006   0.000273   0.000961   0.001118
   91  C    9 S  -0.000030   0.020930  -0.002523   0.004261   0.991958  -0.130679   0.000364  -0.005876  -0.007064  -0.013800
   92  C      S  -0.000119   0.000127   0.000045   0.000167   0.008285  -0.000947  -0.000050   0.234301   0.240937   0.484239
   93  C      S   0.002424   0.002072  -0.000524  -0.000568  -0.004123   0.002248   0.000972  -0.095971  -0.056462  -0.143768
   94  C      X  -0.000122  -0.000181  -0.000014   0.000075  -0.000057   0.000521   0.000020   0.004626   0.110023   0.090203
   95  C      Y  -0.000179  -0.000266  -0.000006   0.000004  -0.000343   0.000036  -0.000005  -0.067157  -0.013144  -0.011360
   96  C      Z  -0.000068   0.000095   0.000003  -0.000014  -0.000294   0.000010   0.000008   0.013333  -0.008506   0.001870
   97  C      X   0.001018   0.000184   0.000024  -0.000061  -0.000049   0.000458   0.000072  -0.002683  -0.028439  -0.020485
   98  C      Y  -0.001215  -0.000941   0.000180   0.000294   0.000684  -0.000710  -0.000384   0.032480   0.001254  -0.003216
   99  C      Z  -0.000144   0.000021  -0.000030  -0.000011   0.000196   0.000018  -0.000009  -0.001825   0.001926  -0.002701
  100  C     XX  -0.000033  -0.000180   0.000053   0.000088  -0.002014   0.000328  -0.000010   0.006766   0.010103   0.016318
  101  C     YY   0.000450  -0.000247   0.000129   0.000022  -0.002164  -0.000088  -0.000036   0.004430  -0.002125  -0.001177
  102  C     ZZ  -0.000138  -0.000121   0.000016  -0.000003  -0.002498   0.000272  -0.000023  -0.002064  -0.003765  -0.006258
  103  C     XY   0.000008   0.000098   0.000007  -0.000066  -0.000009  -0.000003   0.000025   0.006120  -0.005208   0.003500
  104  C     XZ   0.000051  -0.000011  -0.000011  -0.000002  -0.000056  -0.000004   0.000004  -0.001802   0.000248  -0.001241
  105  C     YZ   0.000117  -0.000065  -0.000010  -0.000001  -0.000101   0.000059   0.000003  -0.004301   0.001871  -0.001090
  106  H   10 S  -0.000114   0.000205  -0.000058  -0.000089   0.000702   0.000145   0.000030   0.049552   0.051660   0.162179
  107  H      S   0.000479   0.000111   0.000039   0.000016  -0.000128   0.000089   0.000052  -0.025896  -0.022050  -0.070441
  108  H      X  -0.000118   0.000051  -0.000025  -0.000002   0.000066   0.000081   0.000008   0.002347   0.003504   0.008014
  109  H      Y   0.000084  -0.000056   0.000016   0.000027  -0.000075  -0.000037  -0.000003  -0.004705  -0.003322  -0.011120
  110  H      Z  -0.000022   0.000032  -0.000003  -0.000007   0.000020   0.000005   0.000007   0.000768   0.000036   0.001425
  111  N   11 S   1.000711  -0.000244  -0.000038  -0.000005  -0.000011   0.000018   0.000042  -0.008366   0.004982   0.000426
  112  N      S   0.004426   0.000507  -0.000186  -0.000014  -0.000077   0.000055   0.000119   0.523393  -0.396603   0.007482
  113  N      S  -0.003922  -0.001026   0.000591   0.000059   0.000341  -0.000381  -0.000564  -0.073464   0.045489  -0.007786
  114  N      X   0.002474   0.000384   0.000043  -0.000003  -0.000019  -0.000028  -0.000006   0.136036  -0.081186  -0.003519
  115  N      Y   0.001084   0.000326  -0.000069   0.000002  -0.000029  -0.000005  -0.000002   0.064487  -0.046524   0.028116
  116  N      Z  -0.001923  -0.000360  -0.000034  -0.000005  -0.000017   0.000027  -0.000001  -0.107209   0.072411   0.005791
  117  N      X  -0.002308  -0.000195   0.000196   0.000003   0.000083  -0.000037  -0.000115  -0.033859   0.020656  -0.001790
  118  N      Y  -0.001047  -0.000105  -0.000068   0.000001  -0.000012  -0.000022  -0.000042  -0.017850   0.011365  -0.007619
  119  N      Z   0.001802   0.000376  -0.000062   0.000001  -0.000069   0.000085   0.000088   0.026172  -0.015175   0.000306
  120  N     XX  -0.000974   0.000164   0.000023  -0.000005  -0.000021   0.000013   0.000019   0.007055  -0.003195  -0.000935
  121  N     YY  -0.001006   0.000073  -0.000044  -0.000003  -0.000022   0.000028   0.000031  -0.002239   0.001382   0.002103
  122  N     ZZ  -0.000795   0.000091  -0.000032  -0.000002  -0.000010  -0.000007   0.000029   0.001535  -0.002279  -0.000527
  123  N     XY   0.000489   0.000185  -0.000080  -0.000003  -0.000002  -0.000002  -0.000002   0.007632  -0.005122   0.002746
  124  N     XZ  -0.000508  -0.000084  -0.000043  -0.000001  -0.000017   0.000027   0.000007  -0.012131   0.008631   0.001914
  125  N     YZ   0.000078  -0.000145   0.000017  -0.000002  -0.000011   0.000011   0.000013  -0.004888   0.003517  -0.001914
  126  H   12 S  -0.000088   0.000129   0.000757  -0.000129  -0.000053   0.000044   0.000147   0.073428   0.007546  -0.118584
  127  H      S   0.000313   0.000098  -0.000056  -0.000006   0.000025   0.000044   0.000012  -0.032749  -0.003824   0.049886
  128  H      X   0.000026   0.000018   0.000094   0.000007  -0.000012   0.000003   0.000054   0.002722   0.001690  -0.006999
  129  H      Y  -0.000047   0.000038   0.000091  -0.000038  -0.000010   0.000005   0.000042   0.005778  -0.000092  -0.006562
  130  H      Z  -0.000038   0.000027   0.000016  -0.000007  -0.000003   0.000004   0.000024   0.001717  -0.000194  -0.002145

                     11         12         13         14         15         16         17         18         19         20
                   -0.9509    -0.8386    -0.7880    -0.7084    -0.6456    -0.6304    -0.6147    -0.5631    -0.5300    -0.5208
                     A          A          A          A          A          A          A          A          A          A   
    1  C    1 S   0.009827  -0.009112  -0.000939  -0.005707   0.004165   0.001030   0.002338  -0.001639   0.003047   0.000906
    2  C      S  -0.426353   0.374861   0.072214   0.152502  -0.072837  -0.096287   0.045069   0.078980  -0.004027  -0.033932
    3  C      S   0.093650  -0.034182   0.002924   0.024991  -0.034959   0.005474  -0.008321   0.020093  -0.051519   0.015448
    4  C      X  -0.045099  -0.098343  -0.190958  -0.223183   0.200975  -0.318969   0.151296   0.262581   0.025078   0.014184
    5  C      Y  -0.018909  -0.066064   0.205935  -0.216986   0.039353   0.226575   0.327635   0.156676  -0.047780   0.305880
    6  C      Z   0.007411  -0.012480  -0.015163  -0.083601   0.031565   0.005008   0.089285   0.147877   0.167879   0.014217
    7  C      X   0.000500   0.045595   0.067009   0.079533  -0.049374   0.083041  -0.042326  -0.050568  -0.001361  -0.008277
    8  C      Y  -0.012046   0.045367  -0.047566   0.052999  -0.033280  -0.059889  -0.063625  -0.009972  -0.040830  -0.025777
    9  C      Z  -0.003877   0.008497   0.002966   0.017381  -0.015957  -0.006612  -0.018836  -0.011065  -0.029948   0.000782
   10  C     XX  -0.003238  -0.000776  -0.014983  -0.010460   0.007233  -0.007362   0.010138   0.001730   0.005086   0.006298
   11  C     YY  -0.007808   0.002373   0.016906   0.004903  -0.002144   0.011882  -0.004064  -0.005191  -0.010596   0.000301
   12  C     ZZ   0.006348  -0.003524  -0.001098  -0.001330   0.000301   0.001234   0.001066   0.002252   0.008350  -0.003456
   13  C     XY   0.003101  -0.001872  -0.001713   0.002707  -0.015254  -0.016067  -0.003104  -0.005237  -0.006684  -0.024573
   14  C     XZ  -0.004116  -0.002414  -0.002566  -0.000702   0.002981  -0.008529  -0.000269   0.001881   0.000732  -0.006348
   15  C     YZ  -0.000804   0.001858   0.003996  -0.002051  -0.002159   0.003342   0.002586   0.003594   0.006482  -0.004866
   16  C    2 S  -0.000725   0.008085   0.009708   0.001637  -0.004958  -0.002579   0.000333   0.002568   0.000174  -0.001883
   17  C      S  -0.045470  -0.261276  -0.318014  -0.131484   0.089569   0.052188   0.061786  -0.048253  -0.008393  -0.012969
   18  C      S   0.030160   0.019894   0.010061  -0.003788   0.042871   0.001935   0.012663  -0.016224   0.020082   0.004422
   19  C      X   0.204087  -0.205193   0.007282   0.122580  -0.094483   0.391666  -0.161468  -0.286719  -0.070078  -0.008710
   20  C      Y   0.114399  -0.065540   0.203275  -0.136060  -0.360052  -0.069476   0.280090  -0.104824  -0.122370  -0.324975
   21  C      Z   0.025842  -0.019280   0.015093  -0.007544  -0.033015   0.039475   0.009647   0.037943   0.134390  -0.084437
   22  C      X  -0.058637   0.075495   0.022283  -0.010656   0.018564  -0.083266   0.044501   0.075139   0.011455   0.009175
   23  C      Y  -0.026565  -0.004493  -0.074132   0.022124   0.107669   0.015824  -0.043943   0.019004   0.039419   0.046903
   24  C      Z  -0.006588   0.005317  -0.003972   0.004522   0.010094  -0.008333  -0.000146  -0.002447  -0.005298   0.002256
   25  C     XX  -0.016486   0.007417  -0.002516   0.005906   0.002486  -0.010933   0.006952   0.025803   0.001497  -0.003306
   26  C     YY   0.013918  -0.008542   0.002644  -0.004641  -0.006666   0.006040  -0.004654  -0.022041   0.001069   0.001361
   27  C     ZZ   0.000212   0.003256   0.003215   0.001721  -0.000640   0.000367  -0.000631  -0.000804  -0.000939  -0.000221
   28  C     XY   0.007412  -0.005084   0.001870   0.010633  -0.018095  -0.008216  -0.000217   0.002288  -0.003285  -0.026126
   29  C     XZ  -0.003410   0.000552  -0.000348   0.000939  -0.000899  -0.004559  -0.000178   0.000977  -0.004216  -0.002185
   30  C     YZ   0.000442  -0.001215  -0.000779   0.001000  -0.001313   0.000416  -0.001611   0.001917   0.006406  -0.005558
   31  H    3 S  -0.010981  -0.169825  -0.296381   0.080012   0.295638   0.287179  -0.277344  -0.105909   0.063104   0.303875
   32  H      S   0.006345   0.060280   0.105888  -0.035901  -0.086144  -0.088628   0.086912   0.021971  -0.009996  -0.072304
   33  H      X   0.003473   0.003943   0.010312  -0.002061  -0.010518  -0.004050   0.005112  -0.004072  -0.002562  -0.008344
   34  H      Y   0.000933  -0.010876  -0.014646   0.003072   0.008375   0.012219  -0.010533  -0.006690   0.000073   0.006516
   35  H      Z   0.000269  -0.000784  -0.000813   0.000023  -0.000056   0.001228  -0.000648   0.000815   0.003050  -0.001262
   36  C    4 S  -0.012300   0.002368  -0.004825  -0.007069   0.003258   0.001177   0.000443  -0.003637   0.000415   0.000252
   37  C      S   0.478708  -0.089855   0.274654   0.151253  -0.143904  -0.105338  -0.007760  -0.040667   0.041559  -0.014956
   38  C      S  -0.125030   0.021874  -0.025824   0.026128  -0.030307  -0.011967  -0.012121   0.025152  -0.022491   0.015428
   39  C      X   0.023858  -0.025558   0.042972   0.381187   0.106995   0.125607  -0.028678   0.473681  -0.026980  -0.000599
   40  C      Y   0.045643   0.290771   0.099202   0.023953   0.262343  -0.275245  -0.165038   0.023215   0.168840   0.356581
   41  C      Z  -0.004925  -0.008196   0.002695   0.016471  -0.008028   0.017200  -0.008246   0.092578   0.142024  -0.089368
   42  C      X  -0.020981   0.007416  -0.037368  -0.108274   0.003149  -0.014907   0.012861  -0.097432   0.016992  -0.007377
   43  C      Y  -0.011025  -0.078360  -0.021375  -0.002737  -0.062081   0.055234   0.068882  -0.002082  -0.030483  -0.073685
   44  C      Z   0.000219   0.003362  -0.001097  -0.006443   0.001230  -0.001649   0.000639  -0.012237  -0.009468   0.009695
   45  C     XX  -0.002060   0.001639   0.006010   0.002237  -0.008901  -0.007704  -0.003672   0.024954   0.005832   0.000968
   46  C     YY   0.013687  -0.000020  -0.005383  -0.009538   0.012554   0.007759   0.002582  -0.029425  -0.004917   0.000409
   47  C     ZZ  -0.006285   0.000601  -0.002973  -0.000547   0.000923   0.000516   0.000491  -0.000756  -0.000697   0.000263
   48  C     XY  -0.004286  -0.013897  -0.002985   0.001115  -0.007052   0.003502   0.019095   0.004483  -0.009622  -0.018634
   49  C     XZ   0.000510   0.000553   0.000467  -0.000298  -0.000448  -0.001596  -0.000171  -0.002121  -0.006542   0.005020
   50  C     YZ  -0.001380  -0.002415  -0.001047   0.000674  -0.001508  -0.000167  -0.001105   0.001236  -0.000625  -0.001771
   51  H    5 S   0.226925  -0.054086   0.178413   0.418546   0.021455   0.044299  -0.039891   0.487499   0.012105   0.000423
   52  H      S  -0.094729   0.021751  -0.061398  -0.143620  -0.017311  -0.020202   0.009212  -0.124701  -0.004990   0.001920
   53  H      X  -0.017301   0.003904  -0.010749  -0.021080  -0.001045  -0.002073   0.001527  -0.016984  -0.000609   0.000252
   54  H      Y   0.000033   0.003667   0.000623  -0.000743   0.003144  -0.002898  -0.004938  -0.000629   0.003560   0.007199
   55  H      Z  -0.000777   0.000086  -0.000437  -0.000953  -0.000173   0.000099  -0.000047   0.000542   0.003190  -0.002040
   56  C    6 S   0.001250   0.000476  -0.002128  -0.000060  -0.001544  -0.000699   0.000223  -0.000801   0.001220   0.000506
   57  C      S  -0.141563  -0.152880   0.348061  -0.005191   0.272756   0.204315   0.050698  -0.101538   0.075072  -0.042771
   58  C      S   0.046784   0.022723  -0.058349   0.005250   0.021349  -0.005477  -0.002441  -0.005164  -0.001840  -0.021333
   59  C      X  -0.232403   0.005943   0.214079  -0.054023   0.013461   0.078481  -0.012870   0.202296  -0.212720   0.049955
   60  C      Y  -0.065109  -0.271449   0.009573   0.017421   0.235601  -0.269720  -0.211888  -0.041503  -0.216201  -0.266604
   61  C      Z   0.132945  -0.017234  -0.128749  -0.062215   0.032683  -0.076676  -0.007629   0.081509   0.322567  -0.219997
   62  C      X   0.079855  -0.003910  -0.034517  -0.005076   0.024093   0.016889   0.024096  -0.061164   0.144065  -0.038179
   63  C      Y   0.035402   0.071368  -0.008003  -0.015208  -0.039377   0.064462   0.073118  -0.008998   0.065048   0.050632
   64  C      Z  -0.043812   0.006388   0.025410   0.018410  -0.019201  -0.001388  -0.007211   0.015474  -0.095419   0.036233
   65  C     XX   0.003422  -0.002090  -0.003720  -0.011927   0.002416   0.000841  -0.002320   0.003656  -0.003290   0.003723
   66  C     YY  -0.021498  -0.001537   0.018364   0.019055  -0.006996   0.003630   0.001041  -0.006257  -0.002860   0.006952
   67  C     ZZ   0.004940   0.000812  -0.005278  -0.001745   0.000787  -0.003793  -0.000794   0.004483  -0.001778  -0.006135
   68  C     XY   0.008053  -0.012141  -0.007679  -0.000654  -0.000040  -0.001553  -0.019370  -0.005571  -0.006031  -0.004500
   69  C     XZ  -0.005760   0.000565   0.002830   0.002782  -0.001479   0.000206  -0.000233   0.000349   0.003609  -0.000640
   70  C     YZ  -0.005670   0.005277   0.005087   0.002786  -0.002238   0.001817  -0.000661  -0.003424  -0.004722  -0.003861
   71  C    7 S  -0.004678  -0.009391   0.006314   0.001782  -0.004103  -0.003614  -0.001142   0.001904   0.001181   0.002201
   72  C      S   0.160834   0.396287  -0.170042  -0.135661   0.097185   0.070363  -0.056330  -0.066267   0.024019   0.014700
   73  C      S  -0.038747  -0.059870   0.010329  -0.003979   0.030156   0.019770   0.011843  -0.031823   0.036720  -0.019932
   74  C      X   0.187707   0.125316   0.145733   0.125231   0.364631  -0.195815   0.220151  -0.254703  -0.098658   0.047282
   75  C      Y  -0.087563   0.039232  -0.227224   0.133715   0.113688   0.275721   0.304638   0.122515  -0.191974  -0.318203
   76  C      Z   0.009233  -0.006236   0.021311  -0.015654  -0.001712  -0.040456  -0.055427   0.053662   0.178737  -0.086749
   77  C      X  -0.049251  -0.046303  -0.038454  -0.016217  -0.079185   0.052048  -0.066086   0.070599  -0.003048  -0.006048
   78  C      Y   0.011480  -0.030630   0.071706  -0.013082  -0.047756  -0.077112  -0.056190  -0.014590   0.019789   0.058580
   79  C      Z  -0.000953   0.002674  -0.007960   0.003109   0.003951   0.008123   0.009522  -0.005649  -0.013947   0.000886
   80  C     XX  -0.007412   0.000619  -0.004149   0.005918  -0.009974   0.003280  -0.011016   0.020561   0.005801   0.004932
   81  C     YY   0.013721   0.004190   0.007833  -0.004724   0.005033  -0.009358   0.008714  -0.021064  -0.004145  -0.000878
   82  C     ZZ  -0.002421  -0.004289   0.001074   0.001521  -0.000133  -0.000071   0.000119   0.000586   0.000910  -0.001072
   83  C     XY  -0.011086  -0.004405  -0.004176  -0.010393   0.012972   0.017034   0.001561  -0.001589  -0.019870  -0.022512
   84  C     XZ   0.000762   0.001131   0.001387   0.001853  -0.002998  -0.001044   0.000506  -0.001241  -0.002709   0.008997
   85  C     YZ  -0.001779  -0.001348  -0.001517   0.000335  -0.001371   0.001389   0.000018  -0.000359  -0.005376   0.002947
   86  H    8 S   0.083642   0.265999  -0.184253   0.078161   0.328228   0.180877   0.336442  -0.077740  -0.244016  -0.268064
   87  H      S  -0.033359  -0.101289   0.068329  -0.036661  -0.097717  -0.052505  -0.101718   0.012596   0.062012   0.058074
   88  H      X  -0.000518  -0.007855   0.008119  -0.001638  -0.005231  -0.008435  -0.004799  -0.004433   0.004969   0.007327
   89  H      Y  -0.006377  -0.015743   0.008335  -0.003360  -0.013106  -0.004524  -0.012950   0.004892   0.006870   0.005297
   90  H      Z   0.000620   0.001892  -0.001071   0.000364   0.001863   0.000450   0.001098   0.000930   0.002700  -0.003375
   91  C    9 S   0.007470   0.004999   0.004851  -0.006466   0.005491   0.002070  -0.001195  -0.001516   0.002068  -0.005621
   92  C      S  -0.319665  -0.298964  -0.109668   0.135845  -0.130057  -0.069106  -0.073706   0.069978   0.012594   0.002910
   93  C      S   0.071417   0.048379   0.003354   0.039568  -0.020903  -0.023457  -0.013176   0.028790  -0.078511   0.041153
   94  C      X   0.040300   0.218523  -0.164990  -0.241972  -0.239386   0.280512  -0.213122   0.234027   0.106682  -0.036381
   95  C      Y   0.052962   0.058996  -0.263822   0.202577  -0.253183  -0.071183   0.320751  -0.047310   0.223720   0.191720
   96  C      Z   0.003176  -0.025513   0.027151  -0.030684   0.069963  -0.029787  -0.058715   0.058619   0.129479  -0.185894
   97  C      X  -0.006373  -0.072976   0.036505   0.073539   0.065754  -0.068254   0.045472  -0.038382  -0.051046   0.013340
   98  C      Y   0.004441   0.001218   0.078831  -0.061350   0.086287   0.034356  -0.049613  -0.009391   0.006246  -0.048373
   99  C      Z  -0.004245   0.006803  -0.005441   0.005468  -0.016141   0.005271   0.008677  -0.006528  -0.007079   0.016416
  100  C     XX   0.002449   0.004951  -0.013863  -0.008993  -0.003145   0.005696  -0.009795   0.000307   0.002976  -0.005515
  101  C     YY  -0.011149  -0.011269   0.017323   0.004904   0.012404  -0.004351   0.005656  -0.001451  -0.007061   0.000946
  102  C     ZZ   0.004674   0.003275   0.000520  -0.000745   0.000827   0.000371   0.000863  -0.000407   0.004019  -0.001457
  103  C     XY  -0.004641  -0.007397   0.002238  -0.002379   0.022000   0.009835  -0.000355  -0.000413  -0.017255  -0.024462
  104  C     XZ  -0.000346   0.000575   0.001635   0.002783  -0.001576  -0.002285   0.000457   0.000507   0.005718  -0.000794
  105  C     YZ   0.000174   0.003432   0.000626   0.000822  -0.003414   0.003074   0.000229  -0.002890  -0.007578   0.007622
  106  H   10 S  -0.122920  -0.190507  -0.169684   0.335203  -0.175586  -0.239251   0.331089  -0.128080   0.136122   0.240131
  107  H      S   0.048882   0.071047   0.064418  -0.115528   0.050712   0.067794  -0.108673   0.041925  -0.050865  -0.051836
  108  H      X  -0.003400  -0.003922  -0.009310   0.007068  -0.010174  -0.003900   0.006003  -0.000477   0.005665   0.006415
  109  H      Y   0.008589   0.011974   0.007081  -0.015164   0.004108   0.009055  -0.012939   0.005742  -0.001698  -0.006049
  110  H      Z  -0.000648  -0.001855  -0.001188   0.001694   0.000437  -0.002009   0.000882   0.000736   0.003513  -0.003253
  111  N   11 S  -0.002926  -0.001018   0.000894   0.001399   0.001158  -0.001186   0.001756  -0.000088   0.001432  -0.000766
  112  N      S   0.366647  -0.004546  -0.311646  -0.086822  -0.136916  -0.204214  -0.088032   0.150552  -0.306010   0.079147
  113  N      S  -0.018336   0.005613  -0.002950  -0.024945  -0.024968  -0.024065  -0.023426   0.031687  -0.091324   0.028108
  114  N      X   0.026796   0.004143   0.044327  -0.004534   0.078215   0.113722   0.081850  -0.063578   0.419044  -0.123735
  115  N      Y   0.041725  -0.085291  -0.009033  -0.025349   0.163856  -0.064911   0.003316  -0.060659   0.226287  -0.246826
  116  N      Z  -0.030526  -0.022431  -0.033158  -0.049695  -0.008432  -0.152201  -0.076182   0.205996  -0.234934  -0.100228
  117  N      X  -0.007809   0.001642  -0.003342   0.001380  -0.007381  -0.006193  -0.007444  -0.001815  -0.010393   0.001856
  118  N      Y  -0.009568   0.015186   0.008485  -0.002560  -0.015585   0.012805   0.002174   0.005023  -0.003695   0.008825
  119  N      Z   0.007696   0.002136  -0.000845   0.006100  -0.000714   0.006977   0.004751  -0.005512  -0.000438   0.003568
  120  N     XX  -0.000363   0.001802   0.003442  -0.001951   0.001825   0.006330   0.005307   0.003748   0.018756  -0.005054
  121  N     YY  -0.000429  -0.003577  -0.001527   0.001537   0.003045  -0.006391  -0.003870  -0.000599  -0.001827  -0.007613
  122  N     ZZ   0.001336   0.000536   0.000765   0.003473  -0.000432   0.003826   0.003843  -0.009039   0.001009   0.007717
  123  N     XY   0.003990  -0.006216  -0.000905  -0.001900   0.008511  -0.003706  -0.000383  -0.002934   0.011903  -0.011616
  124  N     XZ  -0.004132  -0.002902  -0.001699  -0.001689  -0.000875  -0.008887  -0.005383   0.008144  -0.017134  -0.001455
  125  N     YZ  -0.002285   0.004457  -0.000311  -0.000342  -0.006410   0.001065  -0.000850   0.006416  -0.008423   0.005227
  126  H   12 S  -0.159316   0.261129  -0.018635   0.345921  -0.180925  -0.084673  -0.323749  -0.245029  -0.033966  -0.304308
  127  H      S   0.065093  -0.099896   0.010426  -0.127373   0.048270   0.021584   0.103895   0.084390  -0.024389   0.093635
  128  H      X  -0.006263   0.009161  -0.004102   0.008540  -0.003897  -0.007784  -0.007716  -0.004000   0.000465  -0.009666
  129  H      Y  -0.010013   0.013990   0.001052   0.015386  -0.006126  -0.000394  -0.012108  -0.008839  -0.001806  -0.006549
  130  H      Z  -0.002014   0.003644  -0.001520   0.003346  -0.001531  -0.001682  -0.003104   0.000357   0.002706  -0.003036

                     21         22         23         24         25         26         27         28         29         30
                   -0.4946    -0.4158    -0.3597    -0.3014     0.0306     0.1188     0.1673     0.1980     0.2071     0.2225
                     A          A          A          A          A          A          A          A          A          A   
    1  C    1 S  -0.004906  -0.003821   0.004032   0.000758   0.000489  -0.010082   0.018018  -0.008819   0.021682   0.017146
    2  C      S  -0.027538   0.044250   0.073791   0.125146  -0.120828  -0.015039  -0.015584  -0.145845   0.020250  -0.186669
    3  C      S   0.034027   0.049974  -0.013886   0.087724  -0.168678   0.188958  -0.253612  -0.035355  -0.636287  -0.754653
    4  C      X  -0.227517  -0.157590   0.008793  -0.092083   0.147822  -0.053277   0.003167   0.051210   0.056351   0.156220
    5  C      Y   0.059698   0.079403   0.185816   0.172835  -0.073295  -0.125699   0.036518   0.000463   0.149094   0.126923
    6  C      Z   0.182240  -0.029653  -0.353368  -0.231813  -0.289993   0.413633   0.170409  -0.155247   0.073221  -0.031940
    7  C      X   0.044618   0.043408   0.001690   0.054325  -0.010715  -0.037255   0.184991   0.045146   0.203308   0.527100
    8  C      Y   0.000037  -0.011935  -0.000636   0.026916  -0.085919  -0.055022   0.053470   0.084499   0.126702   0.649531
    9  C      Z   0.002778  -0.001466  -0.025410  -0.067649  -0.086227   0.302760   0.131950  -0.067960   0.057213   0.100037
   10  C     XX  -0.017936  -0.012702   0.007144  -0.006032   0.004210   0.001705   0.000427   0.002686   0.004175   0.009004
   11  C     YY   0.008778   0.006032   0.003753   0.011130  -0.015291  -0.003090   0.025246  -0.021621   0.003974   0.002632
   12  C     ZZ   0.005753   0.001928  -0.007568  -0.005618   0.002185  -0.006019   0.006980   0.000994   0.012453   0.009640
   13  C     XY  -0.000872   0.000403  -0.003659  -0.008237   0.002822  -0.008828   0.012468  -0.005988   0.000926  -0.013040
   14  C     XZ   0.003993  -0.016348  -0.013476   0.018606  -0.023098  -0.005735  -0.005698   0.014474  -0.001386   0.007329
   15  C     YZ   0.007306   0.010174  -0.002784  -0.005414   0.000714  -0.009276   0.012066  -0.019998   0.000214  -0.005338
   16  C    2 S  -0.000734   0.000819  -0.000872   0.001271  -0.004453   0.001288   0.023686   0.015560   0.030867   0.013035
   17  C      S  -0.007886  -0.068691  -0.012519  -0.025188   0.007789   0.034198  -0.085912   0.069086  -0.062430   0.017941
   18  C      S  -0.008908  -0.032172   0.007875  -0.055314   0.140072   0.006612  -0.654639  -0.383155  -0.967123  -0.574254
   19  C      X   0.179709   0.161482   0.041464   0.036211  -0.017017   0.038639  -0.025799  -0.134911  -0.096863  -0.063273
   20  C      Y  -0.049936  -0.019535   0.006063  -0.039994   0.014982   0.014393   0.118256   0.068498   0.203139   0.002490
   21  C      Z   0.272675  -0.241815  -0.369586   0.213550  -0.233641  -0.229982  -0.179018   0.273240  -0.033508   0.094017
   22  C      X  -0.023734  -0.000081  -0.001499   0.013398  -0.008485   0.048394  -0.021381  -0.054684  -0.349313  -0.137757
   23  C      Y  -0.003531  -0.002551   0.002338  -0.019655   0.069208  -0.047953   0.236473  -0.012960   0.478393  -0.203684
   24  C      Z  -0.017099  -0.003548  -0.022229   0.043599  -0.127324  -0.168441  -0.135495   0.290154  -0.036131   0.105480
   25  C     XX  -0.008962  -0.005436  -0.003445  -0.003226  -0.006770   0.003620   0.004147  -0.002719   0.009571  -0.010167
   26  C     YY   0.009916   0.003896  -0.001045   0.001044  -0.001824  -0.000344   0.011286  -0.001418   0.002782  -0.003807
   27  C     ZZ  -0.000918   0.000262   0.003437   0.003484   0.004000  -0.005926   0.010064   0.012907   0.015998   0.009374
   28  C     XY  -0.008143  -0.004500  -0.009730  -0.011792   0.002566   0.011030  -0.007858   0.002364   0.003004   0.002443
   29  C     XZ  -0.005290  -0.005338   0.014146   0.013641   0.024462  -0.025131  -0.009354   0.002357  -0.001394  -0.000228
   30  C     YZ   0.012340  -0.013861  -0.004590   0.014196   0.015383  -0.008658   0.004252  -0.013910  -0.001484  -0.003604
   31  H    3 S   0.147620   0.095248   0.041910   0.056360  -0.017660  -0.035304   0.061862  -0.037311   0.024238  -0.023968
   32  H      S  -0.032684  -0.016296  -0.003475  -0.000319  -0.008269  -0.128542   0.711951   0.348280   1.333268   0.182383
   33  H      X  -0.000152   0.000174   0.000278  -0.000363  -0.000588   0.000181  -0.003061  -0.005767  -0.006668  -0.006264
   34  H      Y   0.004809   0.003639   0.001359   0.000064  -0.000451   0.001270   0.004939   0.004608   0.015219   0.004819
   35  H      Z   0.006449  -0.005805  -0.009149   0.004690  -0.006808  -0.008370  -0.007819   0.011297  -0.001731   0.003498
   36  C    4 S   0.000558   0.000153  -0.000256  -0.000764   0.004690  -0.002122   0.021233   0.026280   0.006919  -0.036304
   37  C      S   0.005370   0.005216  -0.013099   0.000570   0.023079   0.050305  -0.057398  -0.065413   0.003359   0.019774
   38  C      S   0.015751   0.003548  -0.001554   0.039158  -0.115928   0.153329  -0.564465  -0.610041  -0.250075   1.324735
   39  C      X  -0.157143  -0.017825   0.006489  -0.023641  -0.027103   0.012088  -0.161112  -0.175121  -0.042993   0.181079
   40  C      Y   0.041105   0.015490   0.021735   0.045212  -0.000316  -0.032121  -0.018929  -0.005709   0.007546   0.005416
   41  C      Z   0.242026  -0.313737  -0.025024   0.338914   0.378505  -0.153483   0.073152  -0.247783   0.023314  -0.086809
   42  C      X   0.013264   0.004511  -0.002604  -0.017491   0.055166   0.038167  -0.293966  -0.477382  -0.033852   0.351099
   43  C      Y  -0.002777   0.003235  -0.000125  -0.000293   0.025882   0.011551   0.019412  -0.053740  -0.217632  -0.022509
   44  C      Z  -0.010922  -0.003998  -0.007768   0.038672   0.189197  -0.114648   0.056223  -0.301114   0.040519  -0.093539
   45  C     XX  -0.013000  -0.005846  -0.001052   0.000849  -0.001421  -0.003532   0.013415   0.006780  -0.000792   0.014269
   46  C     YY   0.016144   0.001496   0.003097   0.002703   0.000302   0.006940   0.001102   0.010523   0.000798  -0.008467
   47  C     ZZ  -0.003004   0.002518  -0.001626  -0.002059   0.003071  -0.004075   0.011602   0.013946   0.003827  -0.020675
   48  C     XY  -0.003318  -0.004513  -0.002480  -0.002857   0.001383  -0.002115  -0.002051   0.003296   0.000761   0.000775
   49  C     XZ  -0.012669   0.010637  -0.000867  -0.006190   0.005134  -0.004805   0.000442  -0.004868  -0.000371  -0.001076
   50  C     YZ  -0.004162   0.003859   0.028684  -0.007857   0.013261   0.032196   0.013681  -0.010062   0.003042  -0.002740
   51  H    5 S  -0.169840  -0.042470  -0.001450  -0.005813  -0.008069  -0.031269   0.040312   0.040597  -0.001317   0.030272
   52  H      S   0.036498   0.003387   0.001964   0.005252  -0.024138  -0.138198   0.792468   1.096605   0.197764  -1.135110
   53  H      X   0.004618   0.001132  -0.000003  -0.000006  -0.001192   0.001293  -0.006287  -0.010047  -0.003760   0.021333
   54  H      Y   0.000931   0.000661   0.000599   0.001472  -0.000005  -0.000913  -0.001346   0.001183   0.001933   0.000864
   55  H      Z   0.006005  -0.007318  -0.000435   0.008821   0.012040  -0.005211   0.002377  -0.010239   0.000828  -0.002597
   56  C    6 S  -0.002152  -0.000260   0.000979  -0.003893  -0.003389  -0.005530   0.010350  -0.006101  -0.003667   0.004784
   57  C      S  -0.075155  -0.029291  -0.003537  -0.005439  -0.019468   0.038890   0.003877  -0.033455  -0.014299   0.102260
   58  C      S   0.007995  -0.007578   0.005720   0.047814   0.067832   0.036881  -0.043588  -0.062883   0.147329  -0.297660
   59  C      X   0.366227   0.253525  -0.011905  -0.074323  -0.000473  -0.097499   0.138677  -0.258549   0.007478   0.018611
   60  C      Y  -0.033201  -0.118660  -0.062827  -0.074526   0.033684  -0.017624  -0.030639   0.031957   0.015827   0.019611
   61  C      Z   0.024670   0.306219  -0.062257  -0.198894   0.147237  -0.265062   0.143541  -0.259059   0.042868  -0.057054
   62  C      X  -0.080025   0.022186  -0.014970  -0.045323   0.189968  -0.042073  -0.164220  -0.150018   0.109523  -0.477782
   63  C      Y  -0.035202   0.007847   0.000895   0.017846  -0.014246   0.112161  -0.060235  -0.036231  -0.049614  -0.229094
   64  C      Z   0.045506   0.010541  -0.006507   0.016721   0.006046  -0.130948   0.131834  -0.205300  -0.007501   0.032899
   65  C     XX  -0.019889  -0.026817   0.006254   0.002163  -0.021029  -0.010281   0.027429  -0.026435   0.004050  -0.004979
   66  C     YY   0.024395  -0.002876  -0.007314  -0.033674   0.005668  -0.000559  -0.008167  -0.009975   0.003442  -0.021715
   67  C     ZZ   0.000117   0.025806  -0.000672   0.021883   0.014597   0.002407  -0.002925   0.019631  -0.005125   0.016532
   68  C     XY  -0.008340  -0.025190  -0.004108  -0.032979   0.021794  -0.011652  -0.002422   0.005837  -0.005291  -0.000358
   69  C     XZ   0.014238  -0.008318  -0.000250  -0.025488  -0.010433   0.001763  -0.003444  -0.001940  -0.000801   0.000498
   70  C     YZ  -0.000779  -0.001193   0.029689   0.017438  -0.025679  -0.026209  -0.008181  -0.000390   0.001120  -0.002472
   71  C    7 S   0.000255   0.000186  -0.000696  -0.000142  -0.000479  -0.001438   0.025293   0.020985  -0.029982   0.003169
   72  C      S  -0.017715  -0.010880  -0.002259   0.033014  -0.037231   0.049568  -0.070497   0.034983   0.022055   0.041186
   73  C      S  -0.001855   0.020549  -0.003123   0.008655   0.047090   0.125749  -0.730173  -0.466784   0.981241  -0.166729
   74  C      X   0.209248   0.041137  -0.010015  -0.043635   0.028261  -0.020971  -0.072282  -0.084523   0.098521  -0.005370
   75  C      Y   0.000382  -0.063368   0.042064  -0.018026   0.022269   0.067845  -0.117508  -0.080026   0.185105   0.073976
   76  C      Z   0.235419  -0.192852   0.444286   0.024488   0.074934   0.437132   0.074028   0.117167  -0.017730   0.040889
   77  C      X  -0.041729  -0.024350  -0.001001  -0.010106  -0.011725  -0.029066  -0.106435   0.034882   0.319999   0.035072
   78  C      Y   0.017765   0.006428   0.003510   0.015654  -0.047846   0.106456  -0.191937  -0.068389   0.295087   0.499627
   79  C      Z  -0.011895  -0.001603   0.031897  -0.004159   0.034318   0.323625   0.098914   0.113774  -0.020202   0.000977
   80  C     XX  -0.009916   0.000345  -0.001741  -0.001019  -0.002166   0.002631   0.000554   0.002225  -0.005909  -0.012289
   81  C     YY   0.008933   0.002115  -0.000791  -0.002565  -0.000166  -0.000535   0.010834   0.000818   0.001256   0.001049
   82  C     ZZ   0.001930  -0.002572   0.000828   0.001187   0.002301  -0.002546   0.014493   0.011930  -0.017248   0.001792
   83  C     XY   0.000028  -0.007564  -0.005259  -0.004775   0.008488  -0.003262   0.009480  -0.003165   0.004472   0.000102
   84  C     XZ  -0.005911  -0.003243  -0.021029   0.019140   0.025600   0.012916   0.010304  -0.012653   0.002165  -0.004498
   85  C     YZ  -0.010394   0.011080  -0.000832  -0.010466  -0.013851   0.005604  -0.005805   0.015860  -0.004306   0.005149
   86  H    8 S   0.084925  -0.026570  -0.023370  -0.044784   0.045237  -0.028055   0.060643  -0.023984  -0.003403  -0.017251
   87  H      S  -0.019346   0.005680   0.002732  -0.006261   0.041598  -0.135641   0.808110   0.429845  -1.130454  -0.445896
   88  H      X   0.002546   0.001834   0.000043   0.000057   0.000339   0.000700  -0.004257  -0.003969   0.006837  -0.001425
   89  H      Y  -0.003697  -0.001373   0.001698   0.000147   0.001075   0.002533  -0.005546  -0.005649   0.015432   0.002543
   90  H      Z   0.005737  -0.004687   0.010743   0.000708   0.002743   0.015488   0.002861   0.005194  -0.001366   0.001722
   91  C    9 S  -0.001277   0.000976   0.000269  -0.001743  -0.001845   0.000408   0.018828  -0.011301  -0.022337   0.008530
   92  C      S  -0.001229  -0.022915  -0.026539  -0.115989   0.054286  -0.006671  -0.074733  -0.041043   0.047115  -0.176965
   93  C      S   0.035951  -0.027951  -0.005562  -0.035966   0.005909  -0.103087  -0.367734   0.265547   0.708372  -0.315836
   94  C      X  -0.199660  -0.013982   0.039559   0.092024  -0.073635   0.020322   0.050580   0.010381  -0.111625   0.126600
   95  C      Y   0.026830   0.095227   0.116304   0.124242  -0.106575  -0.004996  -0.116274   0.030621   0.184216  -0.089851
   96  C      Z   0.195722  -0.021234   0.412049  -0.257640  -0.310329  -0.304582  -0.146359   0.102530  -0.051792   0.028293
   97  C      X   0.027330  -0.027679   0.001753  -0.017157  -0.044532  -0.052879   0.210334  -0.011576  -0.316676   0.369603
   98  C      Y  -0.017083   0.000611  -0.008145  -0.037839   0.073684  -0.012367  -0.251352   0.011399   0.429349  -0.820029
   99  C      Z  -0.011926  -0.001905   0.026843  -0.022293  -0.166761  -0.216723  -0.111244   0.077753  -0.059153   0.097510
  100  C     XX  -0.013671  -0.011689   0.001614   0.000778  -0.003178   0.004818   0.000504   0.007398  -0.009025   0.010911
  101  C     YY   0.014931   0.009847   0.000685  -0.001748  -0.005231  -0.006586   0.018882  -0.011739  -0.003914   0.007034
  102  C     ZZ  -0.001101   0.002676  -0.002293  -0.003570   0.004554  -0.003279   0.009502  -0.006162  -0.012299   0.000900
  103  C     XY  -0.006927  -0.013532   0.000252  -0.000060   0.001211   0.011137  -0.011934   0.008022  -0.005589   0.015203
  104  C     XZ   0.012662  -0.012554   0.024008   0.002386  -0.000681   0.028748   0.000889   0.013425  -0.000655   0.004029
  105  C     YZ  -0.006039  -0.008859  -0.000721   0.010422  -0.004198   0.013510  -0.008668   0.018216  -0.004929   0.003348
  106  H   10 S   0.128585   0.100433   0.036122   0.036146  -0.009992  -0.047461   0.075361  -0.042425  -0.013654   0.013964
  107  H      S  -0.024141  -0.018972   0.001907   0.028972  -0.105513  -0.044196   0.709064  -0.097358  -1.168538   1.355182
  108  H      X  -0.001236   0.000881   0.001605   0.003482  -0.001239   0.000832   0.000710  -0.000901  -0.007768   0.010875
  109  H      Y  -0.003246  -0.000567   0.001344  -0.000260  -0.002015  -0.003281  -0.002752   0.000490   0.011166  -0.007034
  110  H      Z   0.005006   0.000032   0.010238  -0.006159  -0.010171  -0.010606  -0.006130   0.005284  -0.002673   0.002187
[...]
                   Y -0.03780747 -0.11252936 -0.01163935  0.01910395  0.05990448 -0.01818107  0.06460952 -0.02772412 -0.00051455
                   Z  0.08132724 -0.02693031  0.05555269 -0.08954265  0.04152869 -0.02146491 -0.01790663 -0.01486294 -0.05978473
  3   H            X  0.03860447  0.09946674 -0.02788065 -0.05774475 -0.08783155 -0.07366254 -0.05643700 -0.09943890 -0.02048499
                   Y -0.01803259 -0.09203001 -0.07785475 -0.01676645  0.04656175 -0.06391887  0.04424374 -0.08388983 -0.06907445
                   Z  0.28689288 -0.13509607  0.14816838 -0.07505464 -0.18413332  0.31338201  0.23765660  0.16710996  0.39173943
  4   C            X -0.06595468 -0.06157885  0.08993605  0.00894564  0.02823564 -0.03493986  0.03238906 -0.07976203  0.11915560
                   Y -0.00124967 -0.04869429 -0.04149018 -0.00625735  0.01911195 -0.01192824  0.02030645 -0.02997777 -0.03650293
                   Z -0.05789594  0.00919090 -0.06189845  0.08398252  0.00426348 -0.05690897 -0.02796632 -0.00943015 -0.03355286
  5   H            X -0.06834139 -0.06622255  0.08966320 -0.00422589  0.03604185 -0.05503198  0.02285995 -0.07753066  0.11065699
                   Y  0.01227235  0.06802659  0.04651382  0.02908264  0.01875554 -0.01474962  0.03701130 -0.05997615 -0.02326630
                   Z -0.02331504 -0.02217795 -0.08089959  0.30191394 -0.19184765  0.33154230  0.09374120 -0.07078458  0.29319936
  6   C            X  0.03955921  0.06862791 -0.11319079  0.00510315  0.09816880  0.08160360  0.02761860  0.04290469  0.00806014
                   Y -0.04160151  0.05633929  0.04167409  0.01267160 -0.00436880 -0.00779031  0.05789910 -0.06249762 -0.04183365
                   Z -0.10377376  0.07496634 -0.05848812 -0.10719173  0.01928049  0.07399850  0.07518403 -0.05383631 -0.00119620
  7   C            X -0.03700035 -0.09395019 -0.04626682 -0.02047652 -0.04742805  0.01713107 -0.03190953  0.00182167 -0.04532481
                   Y  0.03946372 -0.03333623 -0.09380683 -0.05850457 -0.07526926  0.02813350 -0.08395540  0.04586905  0.04678691
                   Z -0.01110020  0.00784366  0.03586728 -0.09644035  0.01792006 -0.01001253  0.03084958  0.05084564  0.02418353
  8   H            X -0.01869956 -0.01798665 -0.07283673 -0.02338769 -0.14668407  0.02177777 -0.08588263  0.05453917 -0.13299518
                   Y  0.04294793 -0.08539904 -0.06593399 -0.04977247 -0.02518490  0.07805943 -0.06429770 -0.03298916  0.08348933
                   Z  0.11633916 -0.04132849  0.15244269 -0.02605173 -0.01478631  0.43727528 -0.04143879 -0.34322057 -0.15292246
  9   C            X -0.01674941 -0.07744543 -0.05374958 -0.02185088 -0.03156298  0.00151413 -0.01918917  0.01880418 -0.02236255
                   Y  0.00164080  0.09182379  0.00124365 -0.00374729 -0.13254737 -0.02480777 -0.01408968 -0.03328977  0.02270974
                   Z  0.06835465  0.00242071 -0.01727609  0.05820251 -0.00857874 -0.10466086  0.02580983  0.04742719  0.03881921
 10   H            X -0.07455205 -0.08940379  0.06038305  0.00768152 -0.09425752 -0.04560360  0.01136554 -0.06229500 -0.09035544
                   Y -0.00063497  0.07691001  0.08024878  0.04411254 -0.17389851 -0.01258560 -0.01910891 -0.12960841 -0.04651554
                   Z  0.35523149 -0.06737807  0.05422403  0.33245274  0.05357050  0.25980777 -0.13273276 -0.35426497 -0.22072148
 11   N            X  0.07559516  0.02208771 -0.01110555  0.04173531  0.04701814 -0.02740766  0.04898566  0.00519247  0.00553084
                   Y  0.09259189  0.03698887 -0.00745760 -0.01419740  0.05807727 -0.04524864  0.01410227 -0.01673122  0.03094768
                   Z  0.01984813 -0.06084684  0.05033767 -0.01395547 -0.03273351 -0.00217227 -0.06127089  0.01293577 -0.01271744
 12   H            X  0.00623383 -0.01900055  0.08239343 -0.02612124 -0.02331524 -0.07658717 -0.01996700 -0.02102283 -0.13258299
                   Y -0.08048035  0.08296344  0.07269218  0.03165385  0.16583926  0.12388217 -0.20756038  0.11602236  0.07926912
                   Z -0.00039269 -0.06719401  0.02206139  0.23774242 -0.34107052  0.04360967  0.56895747  0.26559662 -0.27462062

 TRANS. SAYVETZ    X  0.02692151  0.02853914 -0.03594899  0.00389392  0.03337145  0.00411483  0.01533436  0.02334947 -0.00836761
                   Y  0.01150354 -0.02217207  0.02677689  0.03509662  0.04309464  0.01568360  0.01805776  0.02066674 -0.00801329
                   Z  0.00774759  0.00240772  0.00336540 -0.00211745  0.00102919 -0.00791561 -0.01306513  0.00312892  0.01245331

               TOTAL  0.03028406  0.03621989  0.04495172  0.03537540  0.05451478  0.01804339  0.02705407  0.03133851  0.01700925

   ROT. SAYVETZ    X -0.59706936  0.36914336 -0.01310802 -0.14392716  0.02186111  0.21758524  0.00168581 -0.08141964 -0.13161552
                   Y  0.55791302 -0.04306691  0.10187054 -0.23221808  0.16533779 -0.12633235  0.09130534 -0.03123664 -0.02749576
                   Z -0.05463445  0.16744376  0.46214627  0.00821074 -0.15478475 -0.01003048 -0.10790792  0.10913322 -0.21735641

               TOTAL  0.81898943  0.40762604  0.47342222  0.27332706  0.22753640  0.25180113  0.14136346  0.13969590  0.25558261

                         19          20          21          22          23          24          25          26          27
      FREQUENCY:       1025.23     1083.67     1113.79     1122.02     1175.77     1216.12     1252.56     1335.93     1448.78  
      INTENSITY:       0.08430     0.13087     0.04089     0.03227     0.10857     0.32703     0.14246     0.18103     0.28718

  1   C            X -0.03827234  0.00727699 -0.03095602  0.03286084  0.09770113  0.00436393  0.01653146  0.09561212  0.04057404
                   Y  0.02265041  0.00711413 -0.01096356 -0.00340560 -0.02680305  0.02623572  0.00580459 -0.04831157 -0.01558752
                   Z -0.05513129 -0.00828533  0.00047786  0.00137414  0.04162933  0.00666698  0.00761902 -0.00158034  0.00807947
  2   C            X -0.00481096 -0.00240682  0.05403050 -0.05193129 -0.07054863  0.04871296 -0.03350916 -0.06880617  0.03164712
                   Y -0.04299045 -0.08373786 -0.06663257  0.03099241 -0.02214871  0.06947794 -0.03191182 -0.01551915  0.04547756
                   Z  0.02670105  0.05543039 -0.00731690  0.06202869 -0.06209250  0.00187908 -0.00545324 -0.00163236 -0.00121398
  3   H            X -0.14027451 -0.04267725  0.15750071 -0.11014041 -0.25771750  0.31208214 -0.32390222  0.07918717 -0.30588247
                   Y -0.12358380 -0.09579001 -0.00972207  0.01701413 -0.15209876  0.24225144 -0.21334358  0.07842069 -0.16329819
                   Z -0.18520865 -0.36205232  0.03706941 -0.37190085  0.24894185 -0.05771198 -0.04137548  0.05635159 -0.03257985
  4   C            X  0.11107175  0.02124868 -0.02310555  0.02426191  0.00651549 -0.04395670  0.00238401  0.02497689 -0.00373673
                   Y -0.05065084  0.02208468  0.04466135 -0.02267595 -0.00066704 -0.10824767  0.01012267  0.05842218  0.01211280
                   Z  0.07000453 -0.04272033 -0.01419835 -0.09358194  0.01828742 -0.00411718  0.00742002 -0.00152096 -0.00000541
  5   H            X  0.14359880  0.00721994 -0.03241680 -0.00388032  0.02183337 -0.03248218 -0.00124082  0.04779076  0.00262188
                   Y -0.14666119  0.05489246  0.17354893 -0.08333242 -0.19330502 -0.56860055  0.13818494 -0.40855731 -0.13047312
                   Z -0.28373185  0.31112513  0.07850856  0.52391768 -0.07953746  0.06055951 -0.01106869 -0.00274553  0.00424655
  6   C            X  0.03442825 -0.04945991 -0.05304775  0.02472298 -0.05622399 -0.04558697  0.01773227  0.04276956 -0.09092798
                   Y -0.02834730  0.05419235  0.08809207 -0.03221608  0.08977227  0.00756193 -0.03743101  0.02105582 -0.07607910
                   Z  0.01667192  0.00106807  0.01097120 -0.01169101  0.01172238  0.03456940  0.01288768 -0.04354445  0.06024034
  7   C            X -0.01174212  0.01741757  0.01066885  0.00969029  0.04961077 -0.04639831 -0.07094393  0.03231699 -0.02420243
                   Y  0.09556274  0.05990116  0.03031740 -0.00392135  0.04043698  0.04098852  0.02238284 -0.02381709  0.04723701
                   Z -0.01182926 -0.05576075  0.07410594  0.06320120  0.00714536 -0.01101452  0.00592495  0.01015443 -0.00856097
  8   H            X -0.06506273 -0.14566295 -0.08183247  0.10206605 -0.00070247 -0.22542221 -0.41304297 -0.20973918  0.42500109
                   Y  0.13005781  0.20096215  0.02042819 -0.10347525  0.06592033  0.14790569  0.21605500  0.11412229 -0.21204948
                   Z -0.07951159  0.28467643 -0.46242664 -0.34194525 -0.07519153  0.00431541 -0.05715823 -0.06061763  0.03914888
  9   C            X -0.05278733 -0.00049557  0.03581495 -0.03636905 -0.05091362  0.03354253  0.06504260 -0.07139188 -0.03394744
                   Y  0.02961883 -0.07405515 -0.09676049  0.04943668 -0.04371066 -0.03634821  0.00078656  0.01076475 -0.04199783
                   Z -0.04502521  0.07123033 -0.05333705 -0.02770021  0.00086488 -0.00375148 -0.01223215  0.00678668 -0.00247594
 10   H            X -0.22929628 -0.07518407  0.06986927 -0.08393269 -0.21686385  0.09939497  0.53023227  0.20534669  0.24068099
                   Y -0.03829399 -0.16669025 -0.03719773  0.04477192 -0.13713376  0.00636116  0.28445792  0.17950042  0.13285458
                   Z  0.26967289 -0.31461551  0.36538367  0.13807746  0.06329970  0.05897551  0.01889370 -0.05734148  0.04748638
 11   N            X -0.00541407  0.03106803  0.01336997 -0.00993529  0.02433569  0.02332954  0.00204746 -0.02625152  0.06210532
                   Y -0.00772071  0.00875451 -0.00780257 -0.00018105  0.00789955  0.01825855  0.00371782 -0.02109441  0.03920322
                   Z -0.00402120 -0.02036985 -0.01416231  0.01114665 -0.01333224 -0.02824000 -0.00553052  0.03140236 -0.05273935
 12   H            X -0.10169255 -0.10596639 -0.22622707  0.19337124  0.39277012  0.12984814  0.22491965 -0.42742573 -0.25406481
                   Y -0.03984945  0.04412288  0.09345036 -0.09394472 -0.14542530 -0.05807525 -0.11429549  0.28319807  0.17048536
                   Z  0.31563315  0.11628234  0.05109821 -0.02606328 -0.18201901  0.04118134 -0.02373055 -0.00307962  0.01407686

 TRANS. SAYVETZ    X -0.01696688 -0.00708646 -0.00591104 -0.00204956 -0.00668704  0.02045289  0.01261641 -0.00909741  0.01174877
                   Y -0.01803197 -0.01362777 -0.00230008 -0.00469363 -0.01326493  0.01973604  0.00259972 -0.01563263 -0.00114489
                   Z -0.00246583  0.00200148  0.00029451  0.00113381 -0.00070809  0.00350036  0.00121642 -0.00427481  0.00719448

               TOTAL  0.02488186  0.01548999  0.00634961  0.00524560  0.01487199  0.02863712  0.01293879  0.01858537  0.01382407

   ROT. SAYVETZ    X  0.11799853  0.01015581 -0.03799104 -0.01472255 -0.07506143  0.02589599  0.02449901 -0.02548851  0.02781893
                   Y  0.20124617  0.02130333  0.05573040 -0.00771831 -0.09147727 -0.01418009 -0.05373314 -0.02024395  0.03604286
                   Z -0.13593461  0.12825011  0.07435334 -0.03922678  0.12816987  0.04944816 -0.04722700  0.03236355 -0.03161533

               TOTAL  0.27000350  0.13040347  0.10038733  0.04260359  0.17444146  0.05759165  0.07561641  0.04590077  0.05543022

                         28          29          30          31          32          33          34          35          36
      FREQUENCY:       1523.72     1557.11     1624.45     1696.81     3238.26     3252.92     3268.70     3275.33     3370.63  
      INTENSITY:       0.06917     0.59029     0.14938     0.84416     0.15109     0.15935     0.48887     0.08103     0.01624

  1   C            X  0.07001177 -0.06141061 -0.06255257  0.04056892  0.00013375 -0.00034684 -0.00011614 -0.00012508  0.04389674
                   Y -0.04917149 -0.02783789  0.05227077  0.01544288  0.00103630 -0.00298456 -0.00383018 -0.00121032  0.06736711
                   Z -0.00027660 -0.01735213  0.00464529  0.00995678  0.00047450 -0.00068807 -0.00089180 -0.00021616  0.01976763
  2   C            X  0.03235055  0.11136607  0.04072990 -0.09448353  0.01064320 -0.03130089 -0.02780868 -0.00947170 -0.00727936
                   Y  0.07997180  0.01404135 -0.06423974 -0.07389472 -0.01400729  0.04562375  0.04856890  0.01714224  0.00577146
                   Z  0.00480284  0.01639334  0.00036323 -0.01171265 -0.00057636  0.00182805  0.00206977  0.00070942 -0.00063659
  3   H            X -0.33630081 -0.28770287  0.00348457  0.18453937 -0.11616500  0.34607397  0.33210116  0.11316952  0.04263996
                   Y -0.14029969 -0.24762802 -0.10109719  0.09426161  0.18128676 -0.54432287 -0.53240019 -0.18296243 -0.06082945
                   Z -0.04218940 -0.04457396  0.00059083  0.02712437  0.00660034 -0.02340141 -0.02361158 -0.00834144 -0.00187754
  4   C            X -0.03832714 -0.02448463 -0.02842070  0.06549563 -0.04065809  0.04504367 -0.05328737 -0.02647408 -0.00031025
                   Y -0.03417306  0.06874747  0.13725883  0.07693958 -0.00330370 -0.00097846 -0.00513225 -0.00044021 -0.00132777
                   Z -0.00231722 -0.00582300 -0.00455727  0.00114453 -0.00180447  0.00230334 -0.00274404 -0.00132813  0.00000191
  5   H            X -0.05533421 -0.00884951 -0.01245940  0.09165188  0.47172470 -0.50951657  0.58097606  0.28602054  0.00251911
                   Y  0.04453021 -0.41568981 -0.31692654 -0.17196309  0.02355229 -0.01761234  0.02848373  0.01090168  0.00090566
                   Z -0.00230422  0.02413931  0.00639379  0.02032134  0.02361001 -0.02565393  0.02883433  0.01375608  0.00094712
  6   C            X -0.04109578  0.07953454 -0.05162149 -0.02683272  0.00018543  0.00018196 -0.00005533  0.00105064 -0.00060237
                   Y -0.00731630  0.09288770 -0.09559754 -0.01242311  0.00079242 -0.00030156 -0.00148573  0.00237970 -0.00117699
                   Z -0.00055089 -0.04320622  0.03911352  0.00270267  0.00031454 -0.00031236 -0.00009157 -0.00013363  0.00022237
  7   C            X -0.01434858 -0.06040283  0.07783298 -0.14743486  0.03463879  0.01817726  0.00130751 -0.02124362 -0.00088778
                   Y -0.04507161 -0.00191599 -0.08476196  0.00578886  0.05590809  0.03356489 -0.00537756 -0.02958501 -0.00054430
                   Z  0.00496409 -0.00181591  0.01044943 -0.00203857 -0.00648925 -0.00384792  0.00059412  0.00363731  0.00010652
  8   H            X -0.29281508  0.14472562 -0.20288510  0.17294719 -0.38858144 -0.21615099  0.02082483  0.19540793  0.00299695
                   Y  0.10709722 -0.13301360  0.07282391 -0.19890212 -0.64737648 -0.36731731  0.04469627  0.32408289  0.00570627
                   Z -0.01598351  0.02603053 -0.01502337  0.04258804  0.07568139  0.04266213 -0.00533337 -0.03821452 -0.00058489
  9   C            X  0.11363269  0.02106453 -0.00831619  0.13236497  0.00884758  0.00822990 -0.01905525  0.03980365  0.00014131
                   Y  0.06108534 -0.02763260  0.05751570  0.02169585 -0.01886597 -0.01632519  0.03055568 -0.05947045  0.00033745
                   Z -0.01307785  0.00915283 -0.01223358 -0.00997152  0.00202663  0.00191376 -0.00332843  0.00637479 -0.00027845
 10   H            X -0.36152363  0.03117244 -0.14041040 -0.10986491 -0.13096439 -0.11094192  0.21154614 -0.41449888  0.00178444
                   Y -0.22236339 -0.04242843 -0.00421896 -0.14020268  0.21738304  0.18484539 -0.34525258  0.67131674 -0.00362241
                   Z  0.07438872 -0.05066478  0.04403232  0.04122785 -0.02516276 -0.02106454  0.03919680 -0.07638621 -0.00016988
 11   N            X -0.00758151 -0.05286027  0.04458029  0.00196207  0.00036591 -0.00011684 -0.00017598  0.00000972  0.00182279
                   Y -0.00197898 -0.03145274  0.02748152 -0.00294175 -0.00020746  0.00005856  0.00019293 -0.00034324 -0.00041648
                   Z  0.00472808  0.04029933 -0.03509226 -0.00131177 -0.00029711  0.00016669  0.00017511 -0.00002322 -0.00112958
 12   H            X -0.28651379  0.06083045  0.10981717  0.02439768 -0.01133777  0.02285852  0.02612935  0.00866625 -0.49347252
                   Y  0.17554469 -0.12294425 -0.05907807  0.03658529 -0.01985202  0.04064635  0.04767094  0.01529958 -0.78502800
                   Z -0.00411240 -0.01274542  0.00662377  0.00514670 -0.00461126  0.01065141  0.01207876  0.00441178 -0.20993416

 TRANS. SAYVETZ    X  0.01760326 -0.01249322 -0.00826619  0.03013291 -0.00608407  0.00684802 -0.00990219 -0.00714377 -0.00197852
                   Y  0.00041551  0.00981618  0.00248497 -0.02179755  0.00888962 -0.00526130 -0.00043580 -0.01381445 -0.01017182
                   Z -0.00138405 -0.00576545  0.00491888  0.00008159 -0.00010013 -0.00024214  0.00131394  0.00260383  0.00110798

               TOTAL  0.01766247  0.01690202  0.00993481  0.03719048  0.01077271  0.00863917  0.00999849  0.01576872  0.01042152

   ROT. SAYVETZ    X -0.00347083 -0.05025832  0.02865464 -0.00439781  0.00321512 -0.00640548 -0.00829198  0.00283208 -0.01759886
                   Y  0.01164418 -0.00253451  0.04413001 -0.04645807  0.00063846  0.00331757 -0.01261949 -0.00147686  0.00506527
                   Z  0.04676806 -0.16694659  0.06449646 -0.05066197  0.03193659 -0.01913810 -0.02187070  0.00259509  0.00695470

               TOTAL  0.04832065  0.17436595  0.08323665  0.06887909  0.03210437  0.02045247  0.02657698  0.00411537  0.01958940

 REFERENCE ON SAYVETZ CONDITIONS - A. SAYVETZ, J. CHEM. PHYS., 7, 383-389 (1939).

          NOTE - THE MODES J,K ARE ORTHONORMALIZED ACCORDING TO
                 SUM ON I   M(I) * ( X(I,J)*X(I,K) + Y(I,J)*Y(I,K) + Z(I,J)*Z(I,K) ) = DELTA(J,K)

     -------------------------------
     THERMOCHEMISTRY AT T=  298.15 K
     -------------------------------

 USING IDEAL GAS, RIGID ROTOR, HARMONIC NORMAL MODE APPROXIMATIONS.
 P=  1.01325E+05 PASCAL.
 ALL FREQUENCIES ARE SCALED BY   1.00000
 THE MOMENTS OF INERTIA ARE (IN AMU*BOHR**2)
    360.64475   586.81391   902.32764
 THE ROTATIONAL SYMMETRY NUMBER IS  1.0
   1 IMAGINARY FREQUENCY VIBRATION(S) IS(ARE) EXCLUDED
     FROM THE FOLLOWING THERMOCHEMICAL ANALYSIS.
 THE HARMONIC ZERO POINT ENERGY IS (SCALED BY   1.000)
        0.094315 HARTREE/MOLECULE    20699.690575 CM**-1/MOLECULE 
       59.183445 KCAL/MOL              247.623532 KJ/MOL

               Q               LN Q
 ELEC.     1.00000E+00       0.000000
 TRANS.    3.41443E+07      17.346105
 ROT.      1.56428E+05      11.960349
 VIB.      1.83299E+00       0.605950
 TOT.      9.79021E+12      29.912404

              E         H         G         CV        CP        S
           KJ/MOL    KJ/MOL    KJ/MOL   J/MOL-K   J/MOL-K   J/MOL-K
 ELEC.      0.000     0.000     0.000     0.000     0.000     0.000
 TRANS.     3.718     6.197   -43.000    12.472    20.786   165.009
 ROT.       3.718     3.718   -29.649    12.472    12.472   111.915
 VIB.     251.954   251.954   246.121    48.273    48.273    19.563
 TOTAL    259.391   261.870   173.472    73.217    81.531   296.486

              E         H         G         CV        CP        S
         KCAL/MOL  KCAL/MOL  KCAL/MOL CAL/MOL-K CAL/MOL-K CAL/MOL-K
 ELEC.      0.000     0.000     0.000     0.000     0.000     0.000
 TRANS.     0.889     1.481   -10.277     2.981     4.968    39.438
 ROT.       0.889     0.889    -7.086     2.981     2.981    26.748
 VIB.      60.218    60.218    58.824    11.538    11.538     4.676
 TOTAL     61.996    62.588    41.461    17.499    19.486    70.862

     *******************************************************
     * THIS IS NOT A STATIONARY POINT ON THE MOLECULAR PES *
     *     THE VIBRATIONAL ANALYSIS IS NOT VALID !!!       *
     *******************************************************
 ......END OF NORMAL COORDINATE ANALYSIS......

        STEP CPU TIME =    0.06  TOTAL CPU TIME =    4978.2   (  83.0 MIN) IS 17.71 PERCENT OF REAL TIME OF   28110.5
 1408786  WORDS OF DYNAMIC MEMORY USED
 EXECUTION OF GAMESS TERMINATED NORMALLY 08:27:27        05/08/97
