 Entering Gaussian System, Link 0=g98
 Input=hp_jmol_nmr.com
 Output=hp_jmol_nmr.log
 Initial command:
 /usr/local/gaussian/g98_f90/g98/l1.exe /home/fultoncr/rex/Gau-23294.inp -scrdir=/home/fultoncr/rex/
 Entering Link 1 = /usr/local/gaussian/g98_f90/g98/l1.exe PID=     23296.
  
 Copyright (c) 1988,1990,1992,1993,1995,1998 Gaussian, Inc.
                  All Rights Reserved.
  
 This is part of the Gaussian(R) 98 program.  It is based on
 the Gaussian 94(TM) system (copyright 1995 Gaussian, Inc.),
 the Gaussian 92(TM) system (copyright 1992 Gaussian, Inc.),
 the Gaussian 90(TM) system (copyright 1990 Gaussian, Inc.),
 the Gaussian 88(TM) system (copyright 1988 Gaussian, Inc.),
 the Gaussian 86(TM) system (copyright 1986 Carnegie Mellon
 University), and the Gaussian 82(TM) system (copyright 1983
 Carnegie Mellon University). Gaussian is a federally registered
 trademark of Gaussian, Inc.
  
 This software contains proprietary and confidential information,
 including trade secrets, belonging to Gaussian, Inc.
  
 This software is provided under written license and may be
 used, copied, transmitted, or stored only in accord with that
 written license.
  
 The following legend is applicable only to US Government
 contracts under DFARS:
  
                    RESTRICTED RIGHTS LEGEND
  
 Use, duplication or disclosure by the US Government is subject
 to restrictions as set forth in subparagraph (c)(1)(ii) of the
 Rights in Technical Data and Computer Software clause at DFARS
 252.227-7013.
  
 Gaussian, Inc.
 Carnegie Office Park, Building 6, Pittsburgh, PA 15106 USA
  
 The following legend is applicable only to US Government
 contracts under FAR:
  
                    RESTRICTED RIGHTS LEGEND
  
 Use, reproduction and disclosure by the US Government is subject
 to restrictions as set forth in subparagraph (c) of the
 Commercial Computer Software - Restricted Rights clause at FAR
 52.227-19.
  
 Gaussian, Inc.
 Carnegie Office Park, Building 6, Pittsburgh, PA 15106 USA
  
  
 ---------------------------------------------------------------
 Warning -- This program may not be used in any manner that
 competes with the business of Gaussian, Inc. or will provide
 assistance to any competitor of Gaussian, Inc.  The licensee
 of this program is prohibited from giving any competitor of
 Gaussian, Inc. access to this program.  By using this program,
 the user acknowledges that Gaussian, Inc. is engaged in the
 business of creating and licensing software in the field of
 computational chemistry and represents and warrants to the
 licensee that it is not a competitor of Gaussian, Inc. and that
 it will not use this program in any manner prohibited above.
 ---------------------------------------------------------------
  

 Cite this work as:
 Gaussian 98, Revision A.7,
 M. J. Frisch, G. W. Trucks, H. B. Schlegel, G. E. Scuseria, 
 M. A. Robb, J. R. Cheeseman, V. G. Zakrzewski, J. A. Montgomery, Jr., 
 R. E. Stratmann, J. C. Burant, S. Dapprich, J. M. Millam, 
 A. D. Daniels, K. N. Kudin, M. C. Strain, O. Farkas, J. Tomasi, 
 V. Barone, M. Cossi, R. Cammi, B. Mennucci, C. Pomelli, C. Adamo, 
 S. Clifford, J. Ochterski, G. A. Petersson, P. Y. Ayala, Q. Cui, 
 K. Morokuma, D. K. Malick, A. D. Rabuck, K. Raghavachari, 
 J. B. Foresman, J. Cioslowski, J. V. Ortiz, A. G. Baboul, 
 B. B. Stefanov, G. Liu, A. Liashenko, P. Piskorz, I. Komaromi, 
 R. Gomperts, R. L. Martin, D. J. Fox, T. Keith, M. A. Al-Laham, 
 C. Y. Peng, A. Nanayakkara, C. Gonzalez, M. Challacombe, 
 P. M. W. Gill, B. Johnson, W. Chen, M. W. Wong, J. L. Andres, 
 C. Gonzalez, M. Head-Gordon, E. S. Replogle, and J. A. Pople, 
 Gaussian, Inc., Pittsburgh PA, 1998.

 **************************************************
 Gaussian 98:  HP-PARisc-HPUX-G98RevA.7 11-Apr-1999
                     3-Nov-1999 
 **************************************************
 %mem=64mb
 -----------------
 #p nmr rhf/sto-3g
 -----------------
 1/38=1/1;
 2/17=6,18=5/2;
 3/11=1,25=1,30=1/1,2,8,3;
 4/7=1/1;
 5/5=2,38=4/2;
 8/6=1,11=11/1;
 10/13=100/2;
 6/7=2,8=2,9=2,10=2,28=1/1;
 99/5=1,9=1/99;
 Leave Link    1 at Wed Nov  3 12:09:08 1999, MaxMem=    8388608 cpu:       0.2
 (Enter /usr/local/gaussian/g98_f90/g98/l101.exe)
 ----
 test
 ----
 Symbolic Z-matrix:
 Charge =  0 Multiplicity = 1
 C
 C                    1    B1
 C                    2    B2       1    A1
 C                    3    B3       2    A2       1    D1       0
 C                    4    B4       3    A3       2    D2       0
 C                    5    B5       4    A4       3    D3       0
 H                    2    B6       1    A5       6    D4       0
 H                    3    B7       2    A6       1    D5       0
 H                    4    B8       3    A7       2    D6       0
 H                    5    B9       4    A8       3    D7       0
 H                    6    B10      5    A9       4    D8       0
 C                    1    B11      2    A10      3    D9       0
 H                    12   B12      1    A11      2    D10      0
 H                    12   B13      1    A12      2    D11      0
 H                    12   B14      1    A13      2    D12      0
       Variables:
  B1                    1.38996                  
  B2                    1.38721                  
  B3                    1.38476                  
  B4                    1.38745                  
  B5                    1.38422                  
  B6                    1.08234                  
  B7                    1.08275                  
  B8                    1.08228                  
  B9                    1.08276                  
  B10                   1.08255                  
  B11                   1.5273                   
  B12                   1.08741                  
  B13                   1.0874                   
  B14                   1.08485                  
  A1                  120.75388                  
  A2                  120.16842                  
  A3                  119.57397                  
  A4                  120.14683                  
  A5                  119.58239                  
  A6                  119.79124                  
  A7                  120.2288                   
  A8                  120.00278                  
  A9                  119.73099                  
  A10                 121.14275                  
  A11                 110.768                    
  A12                 110.76942                  
  A13                 110.87451                  
  D1                   -0.00427                  
  D2                    0.00217                  
  D3                    0.00142                  
  D4                  179.99748                  
  D5                  179.99668                  
  D6                 -179.99903                  
  D7                  179.99992                  
  D8                 -179.99973                  
  D9                 -179.99458                  
  D10                 120.21899                  
  D11                -120.35373                  
  D12                  -0.06569                  
 Leave Link  101 at Wed Nov  3 12:09:10 1999, MaxMem=    8388608 cpu:       0.2
 (Enter /usr/local/gaussian/g98_f90/g98/l202.exe)
 ------------------------------------------------------------------------
                         Z-MATRIX (ANGSTROMS AND DEGREES)
 CD Cent Atom  N1     Length/X     N2    Alpha/Y     N3     Beta/Z      J
 ------------------------------------------------------------------------
   1   1  C 
   2   2  C     1   1.389960(  1)
   3   3  C     2   1.387208(  2)   1  120.754( 15)
   4   4  C     3   1.384764(  3)   2  120.168( 16)   1   -0.004( 28)   0
   5   5  C     4   1.387452(  4)   3  119.574( 17)   2    0.002( 29)   0
   6   6  C     5   1.384219(  5)   4  120.147( 18)   3    0.001( 30)   0
   7   7  H     2   1.082336(  6)   1  119.582( 19)   6  179.997( 31)   0
   8   8  H     3   1.082753(  7)   2  119.791( 20)   1  179.997( 32)   0
   9   9  H     4   1.082275(  8)   3  120.229( 21)   2 -179.999( 33)   0
  10  10  H     5   1.082760(  9)   4  120.003( 22)   3  180.000( 34)   0
  11  11  H     6   1.082553( 10)   5  119.731( 23)   4 -180.000( 35)   0
  12  12  C     1   1.527297( 11)   2  121.143( 24)   3 -179.995( 36)   0
  13  13  H    12   1.087412( 12)   1  110.768( 25)   2  120.219( 37)   0
  14  14  H    12   1.087405( 13)   1  110.769( 26)   2 -120.354( 38)   0
  15  15  H    12   1.084853( 14)   1  110.875( 27)   2   -0.066( 39)   0
 ------------------------------------------------------------------------
                         Z-Matrix orientation:                         
 ---------------------------------------------------------------------
 Center     Atomic     Atomic              Coordinates (Angstroms)
 Number     Number      Type              X           Y           Z
 ---------------------------------------------------------------------
    1          6             0        0.000000    0.000000    0.000000
    2          6             0        0.000000    0.000000    1.389960
    3          6             0        1.192127    0.000000    2.099311
    4          6             0        2.402358   -0.000089    1.426322
    5          6             0        2.414375   -0.000133    0.038922
    6          6             0        1.223450   -0.000057   -0.666599
    7          1             0       -0.941250    0.000086    1.924282
    8          1             0        1.173937    0.000054    3.181911
    9          1             0        3.333017   -0.000105    1.978764
   10          1             0        3.356701   -0.000201   -0.494362
   11          1             0        1.240683   -0.000096   -1.749015
   12          6             0       -1.307185    0.000124   -0.789875
   13          1             0       -1.372455    0.878717   -1.427275
   14          1             0       -1.371577   -0.877238   -1.429047
   15          1             0       -2.162262   -0.000958   -0.122231
 ---------------------------------------------------------------------
                    Distance matrix (angstroms):
                    1          2          3          4          5     
     1  C    0.000000
     2  C    1.389960   0.000000
     3  C    2.414182   1.387208   0.000000
     4  C    2.793871   2.402633   1.384764   0.000000
     5  C    2.414689   2.766679   2.395640   1.387452   0.000000
     6  C    1.393264   2.392961   2.766087   2.402112   1.384219
     7  H    2.142151   1.082336   2.140545   3.380485   3.849000
     8  H    3.391561   2.142245   1.082753   2.142688   3.378915
     9  H    3.876146   3.384626   2.144281   1.082275   2.146367
    10  H    3.392909   3.849430   3.378241   2.144714   1.082760
    11  H    2.144375   3.375271   3.848632   3.381161   2.138755
    12  C    1.527297   2.541735   3.820204   4.321139   3.812731
    13  H    2.166308   3.254626   4.448149   4.812954   4.154779
    14  H    2.166321   3.255391   4.448756   4.813014   4.154236
    15  H    2.165714   2.638579   4.023329   4.820142   4.579473
                    6          7          8          9         10     
     6  C    0.000000
     7  H    3.376180   0.000000
     8  H    3.848828   2.460822   0.000000
     9  H    3.383522   4.274614   2.471678   0.000000
    10  H    2.140193   4.931756   4.275446   2.473239   0.000000
    11  H    1.082553   4.272463   4.931377   4.274833   2.460018
    12  C    2.533636   2.738715   4.683060   5.403410   4.673239
    13  H    2.844221   3.491542   5.338610   5.874938   4.899769
    14  H    2.843402   3.492806   5.339496   5.875010   4.898922
    15  H    3.429195   2.383084   4.695485   5.883220   5.531494
                   11         12         13         14         15     
    11  H    0.000000
    12  C    2.722421   0.000000
    13  H    2.775665   1.087412   0.000000
    14  H    2.774105   1.087405   1.755956   0.000000
    15  H    3.771797   1.084853   1.760898   1.760914   0.000000
                           Interatomic angles:
       C1-C2-C3=120.7539       C2-C3-C4=120.1684       C3-C4-C5=119.574 
       C4-C5-C6=120.1468       C1-C2-H7=119.5824       C3-C2-H7=119.6637
       C2-C3-H8=119.7912       C4-C3-H8=120.0403       C3-C4-H9=120.2288
       C5-C4-H9=120.1972      C4-C5-H10=120.0028      C6-C5-H10=119.8504
      C5-C6-H11=119.731       C2-C1-C12=121.1428     C1-C12-H13=110.768 
     C1-C12-H14=110.7694    H13-C12-H14=107.6861     C1-C12-H15=110.8745
    H13-C12-H15=108.3145    H14-C12-H15=108.3164
 Stoichiometry    C7H8
 Framework group  C1[X(C7H8)]
 Deg. of freedom   39
 Full point group                 C1      NOp   1
 Largest Abelian subgroup         C1      NOp   1
 Largest concise Abelian subgroup C1      NOp   1
                         Standard orientation:                         
 ---------------------------------------------------------------------
 Center     Atomic     Atomic              Coordinates (Angstroms)
 Number     Number      Type              X           Y           Z
 ---------------------------------------------------------------------
    1          6             0        0.900683    0.007286   -0.000030
    2          6             0        0.185745    1.199282   -0.000048
    3          6             0       -1.201455    1.194422    0.000018
    4          6             0       -1.893161   -0.005209    0.000014
    5          6             0       -1.189845   -1.201190   -0.000010
    6          6             0        0.194353   -1.193664    0.000000
    7          1             0        0.718104    2.141643   -0.000029
    8          1             0       -1.742700    2.132189    0.000057
    9          1             0       -2.975424   -0.010141    0.000050
   10          1             0       -1.723661   -2.143214   -0.000012
   11          1             0        0.736325   -2.130781   -0.000024
   12          6             0        2.427971    0.002271    0.000022
   13          1             0        2.811839   -0.510737    0.878619
   14          1             0        2.811914   -0.512785   -0.877335
   15          1             0        2.817856    1.014642   -0.001122
 ---------------------------------------------------------------------
 Rotational constants (GHZ):      5.5953630      2.5259959      1.7591573
 Isotopes: C-12,C-12,C-12,C-12,C-12,C-12,H-1,H-1,H-1,H-1,H-1,C-12,H-1,H-1,H-1
 Leave Link  202 at Wed Nov  3 12:09:11 1999, MaxMem=    8388608 cpu:       0.1
 (Enter /usr/local/gaussian/g98_f90/g98/l301.exe)
 Standard basis: STO-3G (5D, 7F)
 There are    43 symmetry adapted basis functions of A   symmetry.
 Crude estimate of integral set expansion from redundant integrals=1.000.
 Integral buffers will be    262144 words long.
 Raffenetti 1 integral format.
 Two-electron integral symmetry is turned on.
    43 basis functions      129 primitive gaussians
    25 alpha electrons       25 beta electrons
       nuclear repulsion energy       269.9492693866 Hartrees.
 Leave Link  301 at Wed Nov  3 12:09:12 1999, MaxMem=    8388608 cpu:       0.1
 (Enter /usr/local/gaussian/g98_f90/g98/l302.exe)
 One-electron integrals computed using PRISM.
 NBasis=    43 RedAO= T  NBF=    43
 NBsUse=    43 1.00D-04 NBFU=    43
 Leave Link  302 at Wed Nov  3 12:09:14 1999, MaxMem=    8388608 cpu:       1.1
 (Enter /usr/local/gaussian/g98_f90/g98/l308.exe)
 Leave Link  308 at Wed Nov  3 12:09:16 1999, MaxMem=    8388608 cpu:       0.5
 (Enter /usr/local/gaussian/g98_f90/g98/l303.exe)
 DipDrv:  MaxL=1.
 Leave Link  303 at Wed Nov  3 12:09:17 1999, MaxMem=    8388608 cpu:       0.5
 (Enter /usr/local/gaussian/g98_f90/g98/l401.exe)
 Projected INDO Guess.
 Leave Link  401 at Wed Nov  3 12:09:19 1999, MaxMem=    8388608 cpu:       0.8
 (Enter /usr/local/gaussian/g98_f90/g98/l502.exe)
 IExCor=   0 DFT=F Ex=HF Corr=None ScaHFX= 1.0000
 ScaDFX=  0.0000  0.0000  0.0000  0.0000
 IRadAn=      0 IRanWt=     -1 IRanGd=            0 ICorTp=0
 Using DIIS extrapolation.
 Closed shell SCF:
 Requested convergence on RMS density matrix=1.00D-08 within  64 cycles.
 Requested convergence on MAX density matrix=1.00D-06.
 Integral symmetry usage will be decided dynamically.
 Keep R1 integrals in memory in canonical form, NReq=      858646.
 IEnd=     10701 IEndB=     10701 NGot=   8388608 MDV=   7936079
 LenX=   7936079
 Symmetry not used in FoFDir.
 MinBra= 0 MaxBra= 1 Meth= 1.
 IRaf=       0 NMat=   1 IRICut=       1 DoRegI=T DoRafI=F ISym2E= 0 JSym2E=0.
 
 Cycle   1  Pass 1  IDiag 1:
 E=-0.535324010851359D+03
 DIIS: error= 3.07D-01 at cycle   1.
 T= 2892. Gap= 0.540 NK=0 IS=    1 IE=   43
          NO(<0.9)=   0  NV(>0.1)=   0  25.00e < EF 0.00e >EF  Err=0.0D+00
 RMSDP=1.78D-02 MaxDP=1.34D-01
 
 Cycle   2  Pass 1  IDiag 1:
 E=-0.536418793966873D+03 Delta-E=       -1.094783115514
 DIIS: error= 1.56D-02 at cycle   2.
 Coeff: 0.534D-01-0.105D+01
 T= 2663. Gap= 0.541 NK=0 IS=    1 IE=   43
          NO(<0.9)=   0  NV(>0.1)=   0  25.00e < EF 0.00e >EF  Err=0.0D+00
 RMSDP=2.06D-03 MaxDP=2.35D-02
 
 Cycle   3  Pass 1  IDiag 1:
 E=-0.536424791670494D+03 Delta-E=       -0.005997703621
 DIIS: error= 1.03D-03 at cycle   3.
 Coeff:-0.503D-02 0.100D+00-0.110D+01
 T= 2264. Gap= 0.541 NK=0 IS=    1 IE=   43
          NO(<0.9)=   0  NV(>0.1)=   0  25.00e < EF 0.00e >EF  Err=0.0D+00
 RMSDP=4.29D-04 MaxDP=3.91D-03
 
 Cycle   4  Pass 1  IDiag 1:
 E=-0.536424934848792D+03 Delta-E=       -0.000143178298
 DIIS: error= 4.50D-04 at cycle   4.
 Coeff:-0.314D-02 0.633D-01-0.205D+00-0.855D+00
 RMSDP=1.21D-04 MaxDP=1.88D-03
 
 Cycle   5  Pass 1  IDiag 1:
 E=-0.536424949224792D+03 Delta-E=       -0.000014375999
 DIIS: error= 8.24D-05 at cycle   5.
 Coeff:-0.355D-03 0.761D-02 0.152D-01-0.170D+00-0.852D+00
 RMSDP=2.18D-05 MaxDP=1.85D-04
 
 Cycle   6  Pass 1  IDiag 1:
 E=-0.536424949806530D+03 Delta-E=       -0.000000581738
 DIIS: error= 1.18D-05 at cycle   6.
 Coeff: 0.172D-04-0.312D-03 0.403D-02-0.648D-02-0.264D-01-0.971D+00
 RMSDP=3.76D-06 MaxDP=4.26D-05
 
 Cycle   7  Pass 1  IDiag 1:
 E=-0.536424949823225D+03 Delta-E=       -0.000000016696
 DIIS: error= 5.63D-06 at cycle   7.
 Coeff: 0.383D-04-0.824D-03-0.132D-02 0.144D-01 0.107D+00-0.307D-01
 Coeff:-0.109D+01
 RMSDP=2.07D-06 MaxDP=3.03D-05
 
 Cycle   8  Pass 1  IDiag 1:
 E=-0.536424949827603D+03 Delta-E=       -0.000000004377
 DIIS: error= 1.66D-06 at cycle   8.
 Coeff:-0.150D-04 0.322D-03 0.473D-03-0.660D-02-0.358D-01 0.916D-01
 Coeff: 0.382D+00-0.143D+01
 RMSDP=9.76D-07 MaxDP=1.27D-05
 
 Cycle   9  Pass 1  IDiag 1:
 E=-0.536424949828287D+03 Delta-E=       -0.000000000684
 DIIS: error= 5.27D-07 at cycle   9.
 Coeff:-0.179D-05 0.385D-04 0.470D-04-0.579D-03-0.526D-02-0.553D-02
 Coeff: 0.261D-01 0.294D+00-0.131D+01
 RMSDP=3.49D-07 MaxDP=3.67D-06
 
 Cycle  10  Pass 1  IDiag 1:
 E=-0.536424949828366D+03 Delta-E=       -0.000000000079
 DIIS: error= 2.16D-07 at cycle  10.
 Coeff: 0.214D-05-0.459D-04-0.718D-04 0.978D-03 0.510D-02-0.638D-02
 Coeff:-0.624D-01 0.113D+00 0.303D+00-0.135D+01
 RMSDP=1.21D-07 MaxDP=1.47D-06
 
 Cycle  11  Pass 1  IDiag 1:
 E=-0.536424949828375D+03 Delta-E=       -0.000000000009
 DIIS: error= 7.73D-08 at cycle  11.
 Coeff:-0.245D-07 0.531D-06 0.641D-05-0.275D-04-0.219D-03 0.206D-02
 Coeff: 0.335D-02-0.424D-01 0.124D+00 0.113D+00-0.120D+01
 RMSDP=3.29D-08 MaxDP=3.73D-07
 
 Cycle  12  Pass 1  IDiag 1:
 E=-0.536424949828376D+03 Delta-E=       -0.000000000001
 DIIS: error= 1.31D-08 at cycle  12.
 Coeff:-0.118D-06 0.253D-05 0.397D-05-0.528D-04-0.300D-03 0.500D-03
 Coeff: 0.329D-02-0.864D-02-0.112D-01 0.493D-01 0.104D-01-0.104D+01
 RMSDP=4.41D-09 MaxDP=4.94D-08
 
 SCF Done:  E(RHF) =  -266.475680442     A.U. after   12 cycles
             Convg  =    0.4410D-08             -V/T =  2.0083
             S**2   =   0.0000
 KE= 2.642857893501D+02 PE=-1.160365342308D+03 EE= 3.596546031297D+02
 Leave Link  502 at Wed Nov  3 12:09:22 1999, MaxMem=    8388608 cpu:       1.3
 (Enter /usr/local/gaussian/g98_f90/g98/l801.exe)
 Range of M.O.s used for correlation:     1    43
 NBasis=    43 NAE=    25 NBE=    25 NFC=     0 NFV=     0
 NROrb=     43 NOA=    25 NOB=    25 NVA=    18 NVB=    18
 Leave Link  801 at Wed Nov  3 12:09:23 1999, MaxMem=    8388608 cpu:       0.0
 (Enter /usr/local/gaussian/g98_f90/g98/l1002.exe)
 Minotr:  Closed-shell wavefunction.
          Direct CPHF calculation.
          Solving linear equations simultaneously.
          Requested convergence is 1.0D-08 RMS, and 1.0D-07 maximum.
          Secondary convergence is 1.0D-12 RMS, and 1.0D-12 maximum.
          Differentiating once with respect to magnetic field using GIAOs.
          NewPWx=F KeepS1=T KeepF1=T KeepIn=T MapXYZ=F.
          MDV=  8388608
          Using IRadAn=       2.
          Store integrals in memory, NReq=      858178.
 Symmetry not used in FoFDir.
 MinBra= 0 MaxBra= 1 Meth= 1.
 IRaf=       0 NMat=   1 IRICut=       1 DoRegI=T DoRafI=F ISym2E= 0 JSym2E=0.
          There are   3 degrees of freedom in the 1st order CPHF.
   3 vectors were produced by pass  0.
 AX will form   3 AO Fock derivatives at one time.
   3 vectors were produced by pass  1.
   3 vectors were produced by pass  2.
   3 vectors were produced by pass  3.
   3 vectors were produced by pass  4.
   3 vectors were produced by pass  5.
   3 vectors were produced by pass  6.
   3 vectors were produced by pass  7.
 Inv2:  IOpt= 1 Iter= 1 AM= 7.51D-16 Conv= 1.00D-12.
 Inverted reduced A of dimension  24 with in-core refinement.
 Calculating GIAO nuclear magnetic shielding tensors.
 SCF GIAO Magnetic shielding tensor (ppm):
  1  C    Isotropic =   118.7192   Anisotropy =   167.9923
   XX=    33.1620   YX=    -0.1869   ZX=    -0.0011
   XY=    -0.2424   YY=    92.2815   ZY=     0.0023
   XZ=    -0.0022   YZ=    -0.0021   ZZ=   230.7140
   Eigenvalues:    33.1613    92.2822   230.7140
  2  C    Isotropic =   124.2578   Anisotropy =   152.2536
   XX=    93.5617   YX=   -34.2793   ZX=     0.0010
   XY=   -35.3427   YY=    53.4516   ZY=     0.0003
   XZ=    -0.0168   YZ=     0.0041   ZZ=   225.7602
   Eigenvalues:    33.3319   113.6814   225.7602
  3  C    Isotropic =   124.4033   Anisotropy =   163.6355
   XX=    88.3767   YX=    33.9246   ZX=     0.0064
   XY=    32.8600   YY=    51.3395   ZY=    -0.0049
   XZ=     0.0062   YZ=    -0.0092   ZZ=   233.4936
   Eigenvalues:    31.6746   108.0417   233.4936
  4  C    Isotropic =   126.1838   Anisotropy =   162.4293
   XX=    35.1158   YX=     0.8962   ZX=     0.0051
   XY=     0.3392   YY=   108.9655   ZY=    -0.0017
   XZ=     0.0137   YZ=    -0.0009   ZZ=   234.4700
   Eigenvalues:    35.1107   108.9706   234.4700
  5  C    Isotropic =   124.4897   Anisotropy =   163.8295
   XX=    90.4388   YX=   -33.1164   ZX=     0.0000
   XY=   -31.7454   YY=    49.3208   ZY=    -0.0016
   XZ=     0.0036   YZ=     0.0004   ZZ=   233.7093
   Eigenvalues:    31.4814   108.2782   233.7093
  6  C    Isotropic =   124.0710   Anisotropy =   158.3352
   XX=    90.1919   YX=    32.0979   ZX=    -0.0010
   XY=    36.5369   YY=    52.3934   ZY=    -0.0005
   XZ=    -0.0191   YZ=    -0.0041   ZZ=   229.6278
   Eigenvalues:    32.1153   110.4700   229.6278
  7  H    Isotropic =    25.9531   Anisotropy =     5.8240
   XX=    28.4696   YX=    -1.8600   ZX=    -0.0002
   XY=    -1.6069   YY=    27.6363   ZY=    -0.0003
   XZ=     0.0000   YZ=    -0.0005   ZZ=    21.7533
   Eigenvalues:    21.7533    26.2702    29.8358
  8  H    Isotropic =    25.7432   Anisotropy =     3.6230
   XX=    28.0352   YX=     0.4085   ZX=    -0.0001
   XY=     0.3118   YY=    27.1072   ZY=     0.0000
   XZ=    -0.0004   YZ=     0.0000   ZZ=    22.0871
   Eigenvalues:    22.0871    26.9839    28.1585
  9  H    Isotropic =    25.8492   Anisotropy =     3.1786
   XX=    27.2931   YX=     0.0071   ZX=    -0.0001
   XY=     0.0577   YY=    27.9667   ZY=     0.0000
   XZ=     0.0002   YZ=     0.0001   ZZ=    22.2877
   Eigenvalues:    22.2877    27.2915    27.9682
 10  H    Isotropic =    25.7314   Anisotropy =     3.6402
   XX=    28.0639   YX=    -0.3404   ZX=    -0.0001
   XY=    -0.3083   YY=    27.0433   ZY=     0.0000
   XZ=    -0.0001   YZ=     0.0001   ZZ=    22.0871
   Eigenvalues:    22.0871    26.9489    28.1582
 11  H    Isotropic =    25.8979   Anisotropy =     6.1267
   XX=    28.4823   YX=     1.9773   ZX=    -0.0002
   XY=     1.8140   YY=    27.5870   ZY=     0.0001
   XZ=    -0.0001   YZ=     0.0010   ZZ=    21.6245
   Eigenvalues:    21.6245    26.0868    29.9824
 12  C    Isotropic =   219.3928   Anisotropy =    26.7603
   XX=   236.9198   YX=     3.7406   ZX=    -0.0128
   XY=     1.5677   YY=   214.7425   ZY=     0.0003
   XZ=     0.0007   YZ=     0.0002   ZZ=   206.5162
   Eigenvalues:   206.5162   214.4292   237.2331
 13  H    Isotropic =    31.3356   Anisotropy =    11.4206
   XX=    31.9752   YX=    -1.9874   ZX=     3.7230
   XY=    -1.8167   YY=    30.0923   ZY=    -3.6484
   XZ=     6.2754   YZ=    -4.3151   ZZ=    31.9393
   Eigenvalues:    26.0633    28.9941    38.9493
 14  H    Isotropic =    31.3350   Anisotropy =    11.4205
   XX=    31.9770   YX=    -1.9960   ZX=    -3.7192
   XY=    -1.8241   YY=    30.1100   ZY=     3.6579
   XZ=    -6.2672   YZ=     4.3253   ZZ=    31.9182
   Eigenvalues:    26.0574    28.9990    38.9487
 15  H    Isotropic =    31.3809   Anisotropy =    11.3821
   XX=    32.5883   YX=     4.2818   ZX=    -0.0053
   XY=     3.5391   YY=    36.5723   ZY=    -0.0094
   XZ=    -0.0083   YZ=    -0.0104   ZZ=    24.9819
   Eigenvalues:    24.9819    30.1917    38.9689
 Leave Link 1002 at Wed Nov  3 12:09:36 1999, MaxMem=    8388608 cpu:      10.3
 (Enter /usr/local/gaussian/g98_f90/g98/l601.exe)
 Copying SCF densities to generalized density rwf, ISCF=0 IROHF=0.

 **********************************************************************

            Population analysis using the SCF density.

 **********************************************************************

 Alpha  occ. eigenvalues --  -11.04376 -11.03611 -11.02670 -11.02656 -11.02405
 Alpha  occ. eigenvalues --  -11.02220 -11.02192  -1.09745  -0.98882  -0.95531
 Alpha  occ. eigenvalues --   -0.88453  -0.77010  -0.74483  -0.64897  -0.58110
 Alpha  occ. eigenvalues --   -0.57731  -0.54331  -0.53222  -0.51298  -0.49911
 Alpha  occ. eigenvalues --   -0.44757  -0.42602  -0.42339  -0.28065  -0.27019
 Alpha virt. eigenvalues --    0.27134   0.27429   0.50523   0.57740   0.63173
 Alpha virt. eigenvalues --    0.64497   0.69840   0.72179   0.72957   0.73988
 Alpha virt. eigenvalues --    0.75411   0.76354   0.88470   0.89646   0.91357
 Alpha virt. eigenvalues --    0.92871   1.11051   1.16238
          Condensed to atoms (all electrons):
              1          2          3          4          5          6
  1  C    4.773482   0.510172  -0.029515  -0.011371  -0.029421   0.505833
  2  C    0.510172   4.784537   0.509215  -0.031048  -0.012025  -0.032979
  3  C   -0.029515   0.509215   4.769505   0.511473  -0.031736  -0.012023
  4  C   -0.011371  -0.031048   0.511473   4.774596   0.508051  -0.031141
  5  C   -0.029421  -0.012025  -0.031736   0.508051   4.768842   0.513014
  6  C    0.505833  -0.032979  -0.012023  -0.031141   0.513014   4.786097
  7  H   -0.026539   0.394766  -0.026113   0.001441   0.000039   0.001442
  8  H    0.001398  -0.025847   0.394996  -0.025846   0.001460   0.000030
  9  H    0.000030   0.001432  -0.025764   0.395395  -0.025707   0.001429
 10  H    0.001402   0.000030   0.001455  -0.025804   0.395003  -0.025923
 11  H   -0.026493   0.001448   0.000038   0.001448  -0.026139   0.394548
 12  C    0.377088  -0.026939   0.000827   0.000016   0.000816  -0.027039
 13  H   -0.020395   0.000640  -0.000020   0.000002   0.000004  -0.002150
 14  H   -0.020394   0.000643  -0.000020   0.000002   0.000004  -0.002158
 15  H   -0.020297  -0.004355   0.000037   0.000000  -0.000020   0.001222
              7          8          9         10         11         12
  1  C   -0.026539   0.001398   0.000030   0.001402  -0.026493   0.377088
  2  C    0.394766  -0.025847   0.001432   0.000030   0.001448  -0.026939
  3  C   -0.026113   0.394996  -0.025764   0.001455   0.000038   0.000827
  4  C    0.001441  -0.025846   0.395395  -0.025804   0.001448   0.000016
  5  C    0.000039   0.001460  -0.025707   0.395003  -0.026139   0.000816
  6  C    0.001442   0.000030   0.001429  -0.025923   0.394548  -0.027039
  7  H    0.603298  -0.003880  -0.000033   0.000002  -0.000036  -0.003828
  8  H   -0.003880   0.599430  -0.003755  -0.000034   0.000002  -0.000015
  9  H   -0.000033  -0.003755   0.599175  -0.003714  -0.000033   0.000001
 10  H    0.000002  -0.000034  -0.003714   0.599488  -0.003917  -0.000015
 11  H   -0.000036   0.000002  -0.000033  -0.003917   0.603357  -0.003434
 12  C   -0.003828  -0.000015   0.000001  -0.000015  -0.003434   4.718135
 13  H    0.000055   0.000000   0.000000   0.000000   0.000183   0.381977
 14  H    0.000055   0.000000   0.000000   0.000000   0.000183   0.381988
 15  H    0.000375  -0.000002   0.000000   0.000000   0.000031   0.385427
             13         14         15
  1  C   -0.020395  -0.020394  -0.020297
  2  C    0.000640   0.000643  -0.004355
  3  C   -0.000020  -0.000020   0.000037
  4  C    0.000002   0.000002   0.000000
  5  C    0.000004   0.000004  -0.000020
  6  C   -0.002150  -0.002158   0.001222
  7  H    0.000055   0.000055   0.000375
  8  H    0.000000   0.000000  -0.000002
  9  H    0.000000   0.000000   0.000000
 10  H    0.000000   0.000000   0.000000
 11  H    0.000183   0.000183   0.000031
 12  C    0.381977   0.381988   0.385427
 13  H    0.615890  -0.021734  -0.021341
 14  H   -0.021734   0.615887  -0.021340
 15  H   -0.021341  -0.021340   0.615810
 Total atomic charges:
              1
  1  C    0.015020
  2  C   -0.069690
  3  C   -0.062355
  4  C   -0.067214
  5  C   -0.062184
  6  C   -0.070202
  7  H    0.058956
  8  H    0.062063
  9  H    0.061545
 10  H    0.062027
 11  H    0.058816
 12  C   -0.185005
 13  H    0.066887
 14  H    0.066882
 15  H    0.064453
 Sum of Mulliken charges=   0.00000
 Atomic charges with hydrogens summed into heavy atoms:
              1
  1  C    0.015020
  2  C   -0.010734
  3  C   -0.000292
  4  C   -0.005669
  5  C   -0.000157
  6  C   -0.011386
  7  H    0.000000
  8  H    0.000000
  9  H    0.000000
 10  H    0.000000
 11  H    0.000000
 12  C    0.013218
 13  H    0.000000
 14  H    0.000000
 15  H    0.000000
 Sum of Mulliken charges=   0.00000
 Electronic spatial extent (au):  <R**2>=   710.4307
 Charge=     0.0000 electrons
 Dipole moment (Debye):
    X=     0.2567    Y=    -0.0234    Z=     0.0001  Tot=     0.2578
 Quadrupole moment (Debye-Ang):
   XX=   -37.3780   YY=   -37.6094   ZZ=   -41.1528
   XY=    -0.0671   XZ=     0.0002   YZ=     0.0001
 Octapole moment (Debye-Ang**2):
  XXX=    -2.5469  YYY=     0.4445  ZZZ=     0.0017  XYY=    -0.3333
  XXY=    -0.1868  XXZ=     0.0007  XZZ=     1.7869  YZZ=    -0.4624
  YYZ=    -0.0014  XYZ=     0.0000
 Hexadecapole moment (Debye-Ang**3):
 XXXX=  -577.3718 YYYY=  -269.9256 ZZZZ=   -40.1466 XXXY=    -0.4669
 XXXZ=     0.0006 YYYX=     1.2754 YYYZ=     0.0006 ZZZX=     0.0051
 ZZZY=    -0.0001 XXYY=  -138.3391 XXZZ=  -106.4381 YYZZ=   -57.0237
 XXYZ=     0.0003 YYXZ=    -0.0048 ZZXY=    -1.3808
 N-N= 2.699492693866D+02 E-N=-1.160365342395D+03  KE= 2.642857893501D+02
 Leave Link  601 at Wed Nov  3 12:09:37 1999, MaxMem=    8388608 cpu:       0.6
 (Enter /usr/local/gaussian/g98_f90/g98/l9999.exe)
 1\1\GINC-CSCHP91\SP\RHF\STO-3G\C7H8\FULTONCR\03-Nov-1999\0\\#P NMR RHF
 /STO-3G\\test\\0,1\C\C,1,1.38996\C,2,1.387208,1,120.753876\C,3,1.38476
 4,2,120.168421,1,-0.004265,0\C,4,1.387452,3,119.573965,2,0.002172,0\C,
 5,1.384219,4,120.146833,3,0.001421,0\H,2,1.082336,1,119.582393,6,179.9
 97482,0\H,3,1.082753,2,119.791243,1,179.996683,0\H,4,1.082275,3,120.22
 8804,2,-179.99903,0\H,5,1.08276,4,120.002779,3,179.999921,0\H,6,1.0825
 53,5,119.730985,4,-179.999733,0\C,1,1.527297,2,121.142752,3,-179.99457
 9,0\H,12,1.087412,1,110.768003,2,120.218994,0\H,12,1.087405,1,110.7694
 18,2,-120.353727,0\H,12,1.084853,1,110.874513,2,-0.065694,0\\Version=H
 P-PARisc-HPUX-G98RevA.7\HF=-266.4756804\RMSD=4.410e-09\Dipole=-0.08187
 04,0.0000517,-0.0598399\PG=C01 [X(C7H8)]\\@



 WE LOSE BECAUSE WE WIN

 GAMBLERS,

 RECOLLECTING WHICH,

 TOSS THEIR DICE AGAIN....


                          EMILY DICKINSON  BOLTS OF MELODY NO. 533
 Job cpu time:  0 days  0 hours  0 minutes 21.5 seconds.
 File lengths (MBytes):  RWF=   10 Int=    0 D2E=    0 Chk=    6 Scr=    1
 Normal termination of Gaussian 98.
