 Entering Gaussian System, Link 0=g98
 Input=hp_jmol_nmr.com
 Output=hp_jmol_nmr.log
 Initial command:
 /usr/local/gaussian/g98_f90/g98/l1.exe /home/fultoncr/rex/Gau-27034.inp -scrdir=/home/fultoncr/rex/
 Entering Link 1 = /usr/local/gaussian/g98_f90/g98/l1.exe PID=     27036.
  
 Copyright (c) 1988,1990,1992,1993,1995,1998 Gaussian, Inc.
                  All Rights Reserved.
  
 This is part of the Gaussian(R) 98 program.  It is based on
 the Gaussian 94(TM) system (copyright 1995 Gaussian, Inc.),
 the Gaussian 92(TM) system (copyright 1992 Gaussian, Inc.),
 the Gaussian 90(TM) system (copyright 1990 Gaussian, Inc.),
 the Gaussian 88(TM) system (copyright 1988 Gaussian, Inc.),
 the Gaussian 86(TM) system (copyright 1986 Carnegie Mellon
 University), and the Gaussian 82(TM) system (copyright 1983
 Carnegie Mellon University). Gaussian is a federally registered
 trademark of Gaussian, Inc.
  
 This software contains proprietary and confidential information,
 including trade secrets, belonging to Gaussian, Inc.
  
 This software is provided under written license and may be
 used, copied, transmitted, or stored only in accord with that
 written license.
  
 The following legend is applicable only to US Government
 contracts under DFARS:
  
                    RESTRICTED RIGHTS LEGEND
  
 Use, duplication or disclosure by the US Government is subject
 to restrictions as set forth in subparagraph (c)(1)(ii) of the
 Rights in Technical Data and Computer Software clause at DFARS
 252.227-7013.
  
 Gaussian, Inc.
 Carnegie Office Park, Building 6, Pittsburgh, PA 15106 USA
  
 The following legend is applicable only to US Government
 contracts under FAR:
  
                    RESTRICTED RIGHTS LEGEND
  
 Use, reproduction and disclosure by the US Government is subject
 to restrictions as set forth in subparagraph (c) of the
 Commercial Computer Software - Restricted Rights clause at FAR
 52.227-19.
  
 Gaussian, Inc.
 Carnegie Office Park, Building 6, Pittsburgh, PA 15106 USA
  
  
 ---------------------------------------------------------------
 Warning -- This program may not be used in any manner that
 competes with the business of Gaussian, Inc. or will provide
 assistance to any competitor of Gaussian, Inc.  The licensee
 of this program is prohibited from giving any competitor of
 Gaussian, Inc. access to this program.  By using this program,
 the user acknowledges that Gaussian, Inc. is engaged in the
 business of creating and licensing software in the field of
 computational chemistry and represents and warrants to the
 licensee that it is not a competitor of Gaussian, Inc. and that
 it will not use this program in any manner prohibited above.
 ---------------------------------------------------------------
  

 Cite this work as:
 Gaussian 98, Revision A.7,
 M. J. Frisch, G. W. Trucks, H. B. Schlegel, G. E. Scuseria, 
 M. A. Robb, J. R. Cheeseman, V. G. Zakrzewski, J. A. Montgomery, Jr., 
 R. E. Stratmann, J. C. Burant, S. Dapprich, J. M. Millam, 
 A. D. Daniels, K. N. Kudin, M. C. Strain, O. Farkas, J. Tomasi, 
 V. Barone, M. Cossi, R. Cammi, B. Mennucci, C. Pomelli, C. Adamo, 
 S. Clifford, J. Ochterski, G. A. Petersson, P. Y. Ayala, Q. Cui, 
 K. Morokuma, D. K. Malick, A. D. Rabuck, K. Raghavachari, 
 J. B. Foresman, J. Cioslowski, J. V. Ortiz, A. G. Baboul, 
 B. B. Stefanov, G. Liu, A. Liashenko, P. Piskorz, I. Komaromi, 
 R. Gomperts, R. L. Martin, D. J. Fox, T. Keith, M. A. Al-Laham, 
 C. Y. Peng, A. Nanayakkara, C. Gonzalez, M. Challacombe, 
 P. M. W. Gill, B. Johnson, W. Chen, M. W. Wong, J. L. Andres, 
 C. Gonzalez, M. Head-Gordon, E. S. Replogle, and J. A. Pople, 
 Gaussian, Inc., Pittsburgh PA, 1998.

 **************************************************
 Gaussian 98:  HP-PARisc-HPUX-G98RevA.7 11-Apr-1999
                     3-Nov-1999 
 **************************************************
 %chk=hp_jmol_nmr
 %mem=64mb
 ---------------
 #n opt hf 3-21g
 ---------------
 1/18=20,38=1/1,3;
 2/9=110,17=6,18=5/2;
 3/5=5,11=9,25=1,30=1/1,2,3;
 4//1;
 5/5=2,38=4/2;
 6/7=2,8=2,9=2,10=2,28=1/1;
 7//1,2,3,16;
 1/18=20/3(1);
 99//99;
 2/9=110/2;
 3/5=5,11=9,25=1,30=1/1,2,3;
 4/5=5,16=2/1;
 5/5=2,38=4/2;
 7//1,2,3,16;
 1/18=20/3(-5);
 2/9=110/2;
 6/7=2,8=2,9=2,10=2,19=2,28=1/1;
 99/9=1/99;
 ----------------------------------------------------------------------
 testing for jmol's handling of nmr calcs.. have to do an opt first tho
 ugh, because jmol can't handle a pre-optimized structure that just doe
 s an nmr calculation alone.
 ----------------------------------------------------------------------
 Symbolic Z-matrix:
 Charge =  0 Multiplicity = 1
 C
 C                    1    B1
 C                    2    B2       1    A1
 C                    3    B3       2    A2       1    D1       0
 C                    4    B4       3    A3       2    D2       0
 C                    5    B5       4    A4       3    D3       0
 H                    2    B6       1    A5       6    D4       0
 H                    3    B7       2    A6       1    D5       0
 H                    4    B8       3    A7       2    D6       0
 H                    5    B9       4    A8       3    D7       0
 H                    6    B10      5    A9       4    D8       0
 C                    1    B11      2    A10      3    D9       0
 H                    12   B12      1    A11      2    D10      0
 H                    12   B13      1    A12      2    D11      0
 H                    12   B14      1    A13      2    D12      0
       Variables:
  B1                    1.38996                  
  B2                    1.38721                  
  B3                    1.38476                  
  B4                    1.38745                  
  B5                    1.38422                  
  B6                    1.08234                  
  B7                    1.08275                  
  B8                    1.08228                  
  B9                    1.08276                  
  B10                   1.08255                  
  B11                   1.5273                   
  B12                   1.08741                  
  B13                   1.0874                   
  B14                   1.08485                  
  A1                  120.75388                  
  A2                  120.16842                  
  A3                  119.57397                  
  A4                  120.14683                  
  A5                  119.58239                  
  A6                  119.79124                  
  A7                  120.2288                   
  A8                  120.00278                  
  A9                  119.73099                  
  A10                 121.14275                  
  A11                 110.768                    
  A12                 110.76942                  
  A13                 110.87451                  
  D1                   -0.00427                  
  D2                    0.00217                  
  D3                    0.00142                  
  D4                  179.99748                  
  D5                  179.99668                  
  D6                 -179.99903                  
  D7                  179.99992                  
  D8                 -179.99973                  
  D9                 -179.99458                  
  D10                 120.21899                  
  D11                -120.35373                  
  D12                  -0.06569                  
 
 GradGradGradGradGradGradGradGradGradGradGradGradGradGradGradGradGradGrad
 Berny optimization.
 Initialization pass.
                         ----------------------------
                         !    Initial Parameters    !
                         ! (Angstroms and Degrees)  !
 ------------------------                            -------------------------
 ! Name  Definition              Value          Derivative Info.             !
 -----------------------------------------------------------------------------
 ! R1    R(1,2)                  1.39           estimate D2E/DX2             !
 ! R2    R(1,6)                  1.3933         estimate D2E/DX2             !
 ! R3    R(1,12)                 1.5273         estimate D2E/DX2             !
 ! R4    R(2,3)                  1.3872         estimate D2E/DX2             !
 ! R5    R(2,7)                  1.0823         estimate D2E/DX2             !
 ! R6    R(3,4)                  1.3848         estimate D2E/DX2             !
 ! R7    R(3,8)                  1.0828         estimate D2E/DX2             !
 ! R8    R(4,5)                  1.3875         estimate D2E/DX2             !
 ! R9    R(4,9)                  1.0823         estimate D2E/DX2             !
 ! R10   R(5,6)                  1.3842         estimate D2E/DX2             !
 ! R11   R(5,10)                 1.0828         estimate D2E/DX2             !
 ! R12   R(6,11)                 1.0826         estimate D2E/DX2             !
 ! R13   R(12,13)                1.0874         estimate D2E/DX2             !
 ! R14   R(12,14)                1.0874         estimate D2E/DX2             !
 ! R15   R(12,15)                1.0849         estimate D2E/DX2             !
 ! A1    A(2,1,6)              118.5838         estimate D2E/DX2             !
 ! A2    A(2,1,12)             121.1428         estimate D2E/DX2             !
 ! A3    A(6,1,12)             120.2734         estimate D2E/DX2             !
 ! A4    A(1,2,3)              120.7539         estimate D2E/DX2             !
 ! A5    A(1,2,7)              119.5824         estimate D2E/DX2             !
 ! A6    A(3,2,7)              119.6637         estimate D2E/DX2             !
 ! A7    A(2,3,4)              120.1684         estimate D2E/DX2             !
 ! A8    A(2,3,8)              119.7912         estimate D2E/DX2             !
 ! A9    A(4,3,8)              120.0403         estimate D2E/DX2             !
 ! A10   A(3,4,5)              119.574          estimate D2E/DX2             !
 ! A11   A(3,4,9)              120.2288         estimate D2E/DX2             !
 ! A12   A(5,4,9)              120.1972         estimate D2E/DX2             !
 ! A13   A(4,5,6)              120.1468         estimate D2E/DX2             !
 ! A14   A(4,5,10)             120.0028         estimate D2E/DX2             !
 ! A15   A(6,5,10)             119.8504         estimate D2E/DX2             !
 ! A16   A(1,6,5)              120.7731         estimate D2E/DX2             !
 ! A17   A(1,6,11)             119.496          estimate D2E/DX2             !
 ! A18   A(5,6,11)             119.731          estimate D2E/DX2             !
 ! A19   A(1,12,13)            110.768          estimate D2E/DX2             !
 ! A20   A(1,12,14)            110.7694         estimate D2E/DX2             !
 ! A21   A(1,12,15)            110.8745         estimate D2E/DX2             !
 ! A22   A(13,12,14)           107.6861         estimate D2E/DX2             !
 ! A23   A(13,12,15)           108.3145         estimate D2E/DX2             !
 ! A24   A(14,12,15)           108.3164         estimate D2E/DX2             !
 ! D1    D(6,1,2,3)              0.0027         estimate D2E/DX2             !
 ! D2    D(6,1,2,7)            179.9975         estimate D2E/DX2             !
 ! D3    D(12,1,2,3)          -179.9946         estimate D2E/DX2             !
 ! D4    D(12,1,2,7)             0.0002         estimate D2E/DX2             !
 ! D5    D(2,1,6,5)              0.0009         estimate D2E/DX2             !
 ! D6    D(2,1,6,11)           179.9977         estimate D2E/DX2             !
 ! D7    D(12,1,6,5)           179.9982         estimate D2E/DX2             !
 ! D8    D(12,1,6,11)           -0.005          estimate D2E/DX2             !
 ! D9    D(2,1,12,13)          120.219          estimate D2E/DX2             !
 ! D10   D(2,1,12,14)         -120.3537         estimate D2E/DX2             !
 ! D11   D(2,1,12,15)           -0.0657         estimate D2E/DX2             !
 ! D12   D(6,1,12,13)          -59.7782         estimate D2E/DX2             !
 ! D13   D(6,1,12,14)           59.6491         estimate D2E/DX2             !
 ! D14   D(6,1,12,15)          179.9371         estimate D2E/DX2             !
 ! D15   D(1,2,3,4)             -0.0043         estimate D2E/DX2             !
 ! D16   D(1,2,3,8)            179.9967         estimate D2E/DX2             !
 ! D17   D(7,2,3,4)           -179.9991         estimate D2E/DX2             !
 ! D18   D(7,2,3,8)              0.0019         estimate D2E/DX2             !
 ! D19   D(2,3,4,5)              0.0022         estimate D2E/DX2             !
 ! D20   D(2,3,4,9)           -179.999          estimate D2E/DX2             !
 ! D21   D(8,3,4,5)           -179.9988         estimate D2E/DX2             !
 ! D22   D(8,3,4,9)              0.             estimate D2E/DX2             !
 ! D23   D(3,4,5,6)              0.0014         estimate D2E/DX2             !
 ! D24   D(3,4,5,10)           179.9999         estimate D2E/DX2             !
 ! D25   D(9,4,5,6)           -179.9974         estimate D2E/DX2             !
 ! D26   D(9,4,5,10)             0.0011         estimate D2E/DX2             !
 ! D27   D(4,5,6,1)             -0.003          estimate D2E/DX2             !
 ! D28   D(4,5,6,11)          -179.9997         estimate D2E/DX2             !
 ! D29   D(10,5,6,1)           179.9985         estimate D2E/DX2             !
 ! D30   D(10,5,6,11)            0.0018         estimate D2E/DX2             !
 -----------------------------------------------------------------------------
 Trust Radius=3.00D-01 FncErr=1.00D-07 GrdErr=1.00D-07
 Number of steps in this run=  79 maximum allowed number of steps= 100.
 GradGradGradGradGradGradGradGradGradGradGradGradGradGradGradGradGradGrad
 
                          Input orientation:                          
 ---------------------------------------------------------------------
 Center     Atomic     Atomic              Coordinates (Angstroms)
 Number     Number      Type              X           Y           Z
 ---------------------------------------------------------------------
    1          6             0        0.000000    0.000000    0.000000
    2          6             0        0.000000    0.000000    1.389960
    3          6             0        1.192127    0.000000    2.099311
    4          6             0        2.402358   -0.000089    1.426322
    5          6             0        2.414375   -0.000133    0.038922
    6          6             0        1.223450   -0.000057   -0.666599
    7          1             0       -0.941250    0.000086    1.924282
    8          1             0        1.173937    0.000054    3.181911
    9          1             0        3.333017   -0.000105    1.978764
   10          1             0        3.356701   -0.000201   -0.494362
   11          1             0        1.240683   -0.000096   -1.749015
   12          6             0       -1.307185    0.000124   -0.789875
   13          1             0       -1.372455    0.878717   -1.427275
   14          1             0       -1.371577   -0.877238   -1.429047
   15          1             0       -2.162262   -0.000958   -0.122231
 ---------------------------------------------------------------------
                    Distance matrix (angstroms):
                    1          2          3          4          5     
     1  C    0.000000
     2  C    1.389960   0.000000
     3  C    2.414182   1.387208   0.000000
     4  C    2.793871   2.402633   1.384764   0.000000
     5  C    2.414689   2.766679   2.395640   1.387452   0.000000
     6  C    1.393264   2.392961   2.766087   2.402112   1.384219
     7  H    2.142151   1.082336   2.140545   3.380485   3.849000
     8  H    3.391561   2.142245   1.082753   2.142688   3.378915
     9  H    3.876146   3.384626   2.144281   1.082275   2.146367
    10  H    3.392909   3.849430   3.378241   2.144714   1.082760
    11  H    2.144375   3.375271   3.848632   3.381161   2.138755
    12  C    1.527297   2.541735   3.820204   4.321139   3.812731
    13  H    2.166308   3.254626   4.448149   4.812954   4.154779
    14  H    2.166321   3.255391   4.448756   4.813014   4.154236
    15  H    2.165714   2.638579   4.023329   4.820142   4.579473
                    6          7          8          9         10     
     6  C    0.000000
     7  H    3.376180   0.000000
     8  H    3.848828   2.460822   0.000000
     9  H    3.383522   4.274614   2.471678   0.000000
    10  H    2.140193   4.931756   4.275446   2.473239   0.000000
    11  H    1.082553   4.272463   4.931377   4.274833   2.460018
    12  C    2.533636   2.738715   4.683060   5.403410   4.673239
    13  H    2.844221   3.491542   5.338610   5.874938   4.899769
    14  H    2.843402   3.492806   5.339496   5.875010   4.898922
    15  H    3.429195   2.383084   4.695485   5.883220   5.531494
                   11         12         13         14         15     
    11  H    0.000000
    12  C    2.722421   0.000000
    13  H    2.775665   1.087412   0.000000
    14  H    2.774105   1.087405   1.755956   0.000000
    15  H    3.771797   1.084853   1.760898   1.760914   0.000000
 Stoichiometry    C7H8
 Framework group  C1[X(C7H8)]
 Deg. of freedom   39
 Full point group                 C1      NOp   1
 Largest Abelian subgroup         C1      NOp   1
 Largest concise Abelian subgroup C1      NOp   1
                         Standard orientation:                         
 ---------------------------------------------------------------------
 Center     Atomic     Atomic              Coordinates (Angstroms)
 Number     Number      Type              X           Y           Z
 ---------------------------------------------------------------------
    1          6             0        0.900683    0.007286   -0.000030
    2          6             0        0.185745    1.199282   -0.000048
    3          6             0       -1.201455    1.194422    0.000018
    4          6             0       -1.893161   -0.005209    0.000014
    5          6             0       -1.189845   -1.201190   -0.000010
    6          6             0        0.194353   -1.193664    0.000000
    7          1             0        0.718104    2.141643   -0.000029
    8          1             0       -1.742700    2.132189    0.000057
    9          1             0       -2.975424   -0.010141    0.000050
   10          1             0       -1.723661   -2.143214   -0.000012
   11          1             0        0.736325   -2.130781   -0.000024
   12          6             0        2.427971    0.002271    0.000022
   13          1             0        2.811839   -0.510737    0.878619
   14          1             0        2.811914   -0.512785   -0.877335
   15          1             0        2.817856    1.014642   -0.001122
 ---------------------------------------------------------------------
 Rotational constants (GHZ):      5.5953630      2.5259959      1.7591573
 Isotopes: C-12,C-12,C-12,C-12,C-12,C-12,H-1,H-1,H-1,H-1,H-1,C-12,H-1,H-1,H-1
 Standard basis: 3-21G (6D, 7F)
 There are    79 symmetry adapted basis functions of A   symmetry.
 Crude estimate of integral set expansion from redundant integrals=1.000.
 Integral buffers will be    262144 words long.
 Raffenetti 1 integral format.
 Two-electron integral symmetry is turned on.
    79 basis functions      129 primitive gaussians
    25 alpha electrons       25 beta electrons
       nuclear repulsion energy       269.9492693866 Hartrees.
 One-electron integrals computed using PRISM.
 NBasis=    79 RedAO= T  NBF=    79
 NBsUse=    79 1.00D-04 NBFU=    79
 Projected INDO Guess.
 Requested convergence on RMS density matrix=1.00D-08 within  64 cycles.
 Requested convergence on MAX density matrix=1.00D-06.
 Keep R1 integrals in memory in canonical form, NReq=     5419692.
 SCF Done:  E(RHF) =  -268.239744426     A.U. after   13 cycles
             Convg  =    0.3555D-08             -V/T =  2.0023
             S**2   =   0.0000

 **********************************************************************

            Population analysis using the SCF density.

 **********************************************************************

 Alpha  occ. eigenvalues --  -11.18684 -11.17544 -11.17509 -11.17224 -11.17198
 Alpha  occ. eigenvalues --  -11.17168 -11.16455  -1.15700  -1.04264  -1.01227
 Alpha  occ. eigenvalues --   -0.93445  -0.82493  -0.79887  -0.69909  -0.63783
 Alpha  occ. eigenvalues --   -0.62466  -0.58683  -0.57625  -0.56679  -0.54007
 Alpha  occ. eigenvalues --   -0.49326  -0.48244  -0.48031  -0.33696  -0.32619
 Alpha virt. eigenvalues --    0.14961   0.15549   0.25895   0.29768   0.31210
 Alpha virt. eigenvalues --    0.33707   0.33889   0.35458   0.37662   0.38170
 Alpha virt. eigenvalues --    0.40620   0.43724   0.51511   0.53046   0.53733
 Alpha virt. eigenvalues --    0.57285   0.77646   0.82860   0.88984   0.91845
 Alpha virt. eigenvalues --    0.94163   0.98284   0.98295   0.98933   1.04633
 Alpha virt. eigenvalues --    1.05634   1.08469   1.09001   1.10964   1.11972
 Alpha virt. eigenvalues --    1.15284   1.18961   1.21053   1.21860   1.28963
 Alpha virt. eigenvalues --    1.31184   1.35112   1.35347   1.36820   1.41262
 Alpha virt. eigenvalues --    1.44514   1.45713   1.56219   1.60446   1.62339
 Alpha virt. eigenvalues --    1.72738   1.76243   1.80168   1.82011   1.88336
 Alpha virt. eigenvalues --    2.16176   2.19509   2.23406   2.77291
          Condensed to atoms (all electrons):
              1          2          3          4          5          6
  1  C    5.304451   0.477711  -0.108786  -0.002726  -0.104681   0.460845
  2  C    0.477711   5.163161   0.472069  -0.109123  -0.003677  -0.089968
  3  C   -0.108786   0.472069   5.167111   0.476292  -0.112702  -0.003627
  4  C   -0.002726  -0.109123   0.476292   5.181518   0.471417  -0.109420
  5  C   -0.104681  -0.003677  -0.112702   0.471417   5.160982   0.479016
  6  C    0.460845  -0.089968  -0.003627  -0.109420   0.479016   5.181607
  7  H   -0.034667   0.399659  -0.030255   0.002281  -0.000070   0.002287
  8  H    0.002525  -0.032695   0.397544  -0.032194   0.002381  -0.000125
  9  H   -0.000142   0.002411  -0.032033   0.398309  -0.031884   0.002421
 10  H    0.002453  -0.000117   0.002380  -0.032059   0.397811  -0.032998
 11  H   -0.036173   0.002136  -0.000063   0.002305  -0.030031   0.401343
 12  C    0.258623  -0.049932   0.002141   0.000117   0.001478  -0.059819
 13  H   -0.050542   0.001020  -0.000059   0.000008   0.000058  -0.001366
 14  H   -0.050536   0.001026  -0.000059   0.000008   0.000058  -0.001367
 15  H   -0.049754  -0.000138   0.000204  -0.000001  -0.000055   0.002639
              7          8          9         10         11         12
  1  C   -0.034667   0.002525  -0.000142   0.002453  -0.036173   0.258623
  2  C    0.399659  -0.032695   0.002411  -0.000117   0.002136  -0.049932
  3  C   -0.030255   0.397544  -0.032033   0.002380  -0.000063   0.002141
  4  C    0.002281  -0.032194   0.398309  -0.032059   0.002305   0.000117
  5  C   -0.000070   0.002381  -0.031884   0.397811  -0.030031   0.001478
  6  C    0.002287  -0.000125   0.002421  -0.032998   0.401343  -0.059819
  7  H    0.429809  -0.001419  -0.000036   0.000002  -0.000042  -0.001300
  8  H   -0.001419   0.428443  -0.001387  -0.000036   0.000002  -0.000042
  9  H   -0.000036  -0.001387   0.427610  -0.001345  -0.000036   0.000001
 10  H    0.000002  -0.000036  -0.001345   0.428447  -0.001423  -0.000043
 11  H   -0.000042   0.000002  -0.000036  -0.001423   0.429395  -0.000922
 12  C   -0.001300  -0.000042   0.000001  -0.000043  -0.000922   5.287562
 13  H    0.000019   0.000001   0.000000   0.000001   0.000378   0.380645
 14  H    0.000018   0.000001   0.000000   0.000001   0.000380   0.380666
 15  H    0.001461  -0.000001   0.000000   0.000000   0.000010   0.386797
             13         14         15
  1  C   -0.050542  -0.050536  -0.049754
  2  C    0.001020   0.001026  -0.000138
  3  C   -0.000059  -0.000059   0.000204
  4  C    0.000008   0.000008  -0.000001
  5  C    0.000058   0.000058  -0.000055
  6  C   -0.001366  -0.001367   0.002639
  7  H    0.000019   0.000018   0.001461
  8  H    0.000001   0.000001  -0.000001
  9  H    0.000000   0.000000   0.000000
 10  H    0.000001   0.000001   0.000000
 11  H    0.000378   0.000380   0.000010
 12  C    0.380645   0.380666   0.386797
 13  H    0.500651  -0.027185  -0.023705
 14  H   -0.027185   0.500640  -0.023701
 15  H   -0.023705  -0.023701   0.494835
 Total atomic charges:
              1
  1  C   -0.068601
  2  C   -0.233543
  3  C   -0.230155
  4  C   -0.246732
  5  C   -0.230100
  6  C   -0.231469
  7  H    0.232253
  8  H    0.237004
  9  H    0.236111
 10  H    0.236927
 11  H    0.232741
 12  C   -0.585970
 13  H    0.220078
 14  H    0.220050
 15  H    0.211409
 Sum of Mulliken charges=   0.00000
 Atomic charges with hydrogens summed into heavy atoms:
              1
  1  C   -0.068601
  2  C   -0.001290
  3  C    0.006849
  4  C   -0.010622
  5  C    0.006826
  6  C    0.001271
  7  H    0.000000
  8  H    0.000000
  9  H    0.000000
 10  H    0.000000
 11  H    0.000000
 12  C    0.065567
 13  H    0.000000
 14  H    0.000000
 15  H    0.000000
 Sum of Mulliken charges=   0.00000
 Electronic spatial extent (au):  <R**2>=   716.0648
 Charge=     0.0000 electrons
 Dipole moment (Debye):
    X=     0.3322    Y=    -0.0402    Z=     0.0002  Tot=     0.3346
 Quadrupole moment (Debye-Ang):
   XX=   -37.8531   YY=   -38.2901   ZZ=   -47.5751
   XY=    -0.0704   XZ=     0.0000   YZ=     0.0002
 Octapole moment (Debye-Ang**2):
  XXX=    -4.0927  YYY=     0.5606  ZZZ=     0.0026  XYY=    -1.3241
  XXY=    -0.1687  XXZ=     0.0008  XZZ=     3.9797  YZZ=    -0.6532
  YYZ=    -0.0019  XYZ=    -0.0001
 Hexadecapole moment (Debye-Ang**3):
 XXXX=  -591.7998 YYYY=  -271.8561 ZZZZ=   -56.6938 XXXY=    -0.1398
 XXXZ=    -0.0012 YYYX=     1.6706 YYYZ=     0.0011 ZZZX=     0.0068
 ZZZY=     0.0001 XXYY=  -141.5121 XXZZ=  -119.5769 YYZZ=   -66.4650
 XXYZ=     0.0006 YYXZ=    -0.0067 ZZXY=    -1.8640
 N-N= 2.699492693866D+02 E-N=-1.163336155999D+03  KE= 2.676354610302D+02
 ***** Axes restored to original set *****
 -------------------------------------------------------------------
 Center     Atomic                   Forces (Hartrees/Bohr)
 Number     Number              X              Y              Z
 -------------------------------------------------------------------
    1          6          -0.001184955   -0.000001888   -0.000548416
    2          6          -0.004418338    0.000011355    0.000425418
    3          6           0.000687580   -0.000003928    0.004795678
    4          6           0.004403165    0.000002225    0.003121282
    5          6           0.004151541    0.000004176   -0.002401212
    6          6          -0.001229452   -0.000007318   -0.003811983
    7          1           0.006067384   -0.000003900   -0.003561451
    8          1           0.000081361   -0.000001287   -0.007740958
    9          1          -0.006568241   -0.000001022   -0.003924558
   10          1          -0.006736366    0.000000105    0.003793161
   11          1          -0.000243892    0.000001721    0.006721603
   12          6           0.003123315    0.000002829    0.000809797
   13          1           0.000337312   -0.000934711    0.001740833
   14          1           0.000334169    0.000931462    0.001743714
   15          1           0.001195415    0.000000182   -0.001162908
 -------------------------------------------------------------------
 Cartesian Forces:  Max     0.007740958 RMS     0.003008357
 
 GradGradGradGradGradGradGradGradGradGradGradGradGradGradGradGradGradGrad
 Berny optimization.
 Internal  Forces:  Max     0.007741233 RMS     0.002352903
 Search for a local minimum.
 Step number   1 out of a maximum of  79
 All quantities printed in internal units (Hartrees-Bohrs-Radians)
 Second derivative matrix not updated -- first step.
     Eigenvalues ---    0.00405   0.01470   0.02206   0.02236   0.02241
     Eigenvalues ---    0.02259   0.02268   0.02274   0.02276   0.02283
     Eigenvalues ---    0.07044   0.07092   0.16000   0.16000   0.16000
     Eigenvalues ---    0.16000   0.16000   0.16000   0.16000   0.16000
     Eigenvalues ---    0.22000   0.22000   0.23475   0.25000   0.29674
     Eigenvalues ---    0.35113   0.35114   0.35414   0.35663   0.35664
     Eigenvalues ---    0.35688   0.35714   0.35721   0.43103   0.43192
     Eigenvalues ---    0.47197   0.47557   0.47968   0.482041000.00000
     Eigenvalues --- 1000.000001000.000001000.000001000.000001000.00000
     Eigenvalues --- 1000.000001000.000001000.000001000.000001000.00000
     Eigenvalues --- 1000.000001000.000001000.000001000.000001000.00000
     Eigenvalues --- 1000.000001000.000001000.000001000.000001000.00000
     Eigenvalues --- 1000.000001000.000001000.000001000.000001000.00000
     Eigenvalues --- 1000.000001000.000001000.000001000.00000
 RFO step:  Lambda=-1.05579852D-03.
 Linear search not attempted -- first point.
 Iteration  1 RMS(Cart)=  0.01050789 RMS(Int)=  0.00000591
 Iteration  2 RMS(Cart)=  0.00000842 RMS(Int)=  0.00000052
 Iteration  3 RMS(Cart)=  0.00000000 RMS(Int)=  0.00000052
 Variable       Old X    -DE/DX   Delta X   Delta X   Delta X     New X
                                 (Linear)    (Quad)   (Total)
    R1        2.62664  -0.00430   0.00000  -0.00918  -0.00918   2.61746
    R2        2.63289  -0.00407   0.00000  -0.00881  -0.00881   2.62408
    R3        2.88617  -0.00589   0.00000  -0.01978  -0.01978   2.86639
    R4        2.62144  -0.00210   0.00000  -0.00438  -0.00438   2.61706
    R5        2.04532  -0.00703   0.00000  -0.01964  -0.01964   2.02568
    R6        2.61682  -0.00307   0.00000  -0.00623  -0.00623   2.61059
    R7        2.04611  -0.00774   0.00000  -0.02164  -0.02164   2.02446
    R8        2.62190  -0.00259   0.00000  -0.00529  -0.00529   2.61662
    R9        2.04520  -0.00765   0.00000  -0.02136  -0.02136   2.02385
   R10        2.61579  -0.00252   0.00000  -0.00521  -0.00521   2.61058
   R11        2.04612  -0.00773   0.00000  -0.02161  -0.02161   2.02451
   R12        2.04573  -0.00672   0.00000  -0.01879  -0.01879   2.02694
   R13        2.05491  -0.00180   0.00000  -0.00510  -0.00510   2.04981
   R14        2.05490  -0.00180   0.00000  -0.00510  -0.00510   2.04980
   R15        2.05007  -0.00166   0.00000  -0.00467  -0.00467   2.04541
    A1        2.06968   0.00041   0.00000   0.00114   0.00114   2.07082
    A2        2.11434   0.00003   0.00000   0.00036   0.00036   2.11470
    A3        2.09917  -0.00044   0.00000  -0.00150  -0.00150   2.09767
    A4        2.10755  -0.00001   0.00000  -0.00028  -0.00028   2.10727
    A5        2.08711  -0.00010   0.00000  -0.00051  -0.00051   2.08660
    A6        2.08853   0.00011   0.00000   0.00079   0.00079   2.08931
    A7        2.09733   0.00006   0.00000   0.00060   0.00060   2.09793
    A8        2.09075  -0.00008   0.00000  -0.00061  -0.00061   2.09014
    A9        2.09510   0.00002   0.00000   0.00001   0.00001   2.09511
   A10        2.08696  -0.00054   0.00000  -0.00185  -0.00185   2.08511
   A11        2.09839   0.00029   0.00000   0.00106   0.00106   2.09945
   A12        2.09784   0.00025   0.00000   0.00078   0.00078   2.09862
   A13        2.09696   0.00008   0.00000   0.00065   0.00065   2.09761
   A14        2.09444  -0.00002   0.00000  -0.00022  -0.00022   2.09422
   A15        2.09178  -0.00006   0.00000  -0.00043  -0.00043   2.09135
   A16        2.10789   0.00000   0.00000  -0.00026  -0.00026   2.10763
   A17        2.08560  -0.00014   0.00000  -0.00074  -0.00074   2.08486
   A18        2.08970   0.00014   0.00000   0.00100   0.00100   2.09070
   A19        1.93327  -0.00067   0.00000  -0.00364  -0.00364   1.92963
   A20        1.93329  -0.00067   0.00000  -0.00363  -0.00363   1.92966
   A21        1.93513   0.00036   0.00000   0.00114   0.00114   1.93627
   A22        1.87948   0.00105   0.00000   0.00862   0.00862   1.88810
   A23        1.89045  -0.00001   0.00000  -0.00109  -0.00109   1.88935
   A24        1.89048  -0.00001   0.00000  -0.00111  -0.00111   1.88936
    D1        0.00005   0.00000   0.00000  -0.00006  -0.00006  -0.00002
    D2        3.14155   0.00000   0.00000   0.00008   0.00008   3.14162
    D3       -3.14150   0.00000   0.00000  -0.00004  -0.00004  -3.14154
    D4        0.00000   0.00000   0.00000   0.00010   0.00010   0.00010
    D5        0.00002   0.00000   0.00000  -0.00004  -0.00004  -0.00002
    D6        3.14155   0.00000   0.00000   0.00004   0.00004   3.14159
    D7        3.14156   0.00000   0.00000  -0.00006  -0.00006   3.14150
    D8       -0.00009   0.00000   0.00000   0.00002   0.00002  -0.00007
    D9        2.09822  -0.00022   0.00000  -0.00303  -0.00303   2.09519
   D10       -2.10057   0.00022   0.00000   0.00304   0.00304  -2.09753
   D11       -0.00115   0.00000   0.00000  -0.00001  -0.00001  -0.00115
   D12       -1.04333  -0.00022   0.00000  -0.00301  -0.00301  -1.04633
   D13        1.04107   0.00022   0.00000   0.00306   0.00306   1.04414
   D14        3.14050   0.00000   0.00000   0.00002   0.00002   3.14051
   D15       -0.00007   0.00000   0.00000   0.00011   0.00011   0.00004
   D16        3.14153   0.00000   0.00000   0.00009   0.00009   3.14162
   D17       -3.14158   0.00000   0.00000  -0.00003  -0.00003  -3.14160
   D18        0.00003   0.00000   0.00000  -0.00005  -0.00005  -0.00002
   D19        0.00004   0.00000   0.00000  -0.00006  -0.00006  -0.00002
   D20       -3.14158   0.00000   0.00000  -0.00002  -0.00002  -3.14159
   D21       -3.14157   0.00000   0.00000  -0.00004  -0.00004  -3.14161
   D22        0.00000   0.00000   0.00000   0.00000   0.00000   0.00001
   D23        0.00003   0.00000   0.00000  -0.00004  -0.00004  -0.00001
   D24        3.14159   0.00000   0.00000   0.00002   0.00002   3.14161
   D25       -3.14155   0.00000   0.00000  -0.00008  -0.00008  -3.14163
   D26        0.00002   0.00000   0.00000  -0.00002  -0.00002   0.00000
   D27       -0.00005   0.00000   0.00000   0.00009   0.00009   0.00004
   D28       -3.14159   0.00000   0.00000   0.00001   0.00001  -3.14158
   D29        3.14157   0.00000   0.00000   0.00003   0.00003   3.14159
   D30        0.00003   0.00000   0.00000  -0.00005  -0.00005  -0.00002
         Item               Value     Threshold  Converged?
 Maximum Force            0.007741     0.000450     NO 
 RMS     Force            0.002353     0.000300     NO 
 Maximum Displacement     0.031408     0.001800     NO 
 RMS     Displacement     0.010506     0.001200     NO 
 Predicted change in Energy=-5.263080D-04
 GradGradGradGradGradGradGradGradGradGradGradGradGradGradGradGradGradGrad
 
                          Input orientation:                          
 ---------------------------------------------------------------------
 Center     Atomic     Atomic              Coordinates (Angstroms)
 Number     Number      Type              X           Y           Z
 ---------------------------------------------------------------------
    1          6             0       -0.775604    0.000011   -0.456299
    2          6             0       -0.776180    0.000057    0.928801
    3          6             0        0.413856    0.000002    1.637129
    4          6             0        1.621697   -0.000056    0.966630
    5          6             0        1.632150   -0.000084   -0.417984
    6          6             0        0.443273   -0.000072   -1.121547
    7          1             0       -1.708881    0.000092    1.457131
    8          1             0        0.395059    0.000010    2.708265
    9          1             0        2.542818   -0.000098    1.513001
   10          1             0        2.564050   -0.000148   -0.946467
   11          1             0        0.458780   -0.000107   -2.194046
   12          6             0       -2.073220    0.000140   -1.241771
   13          1             0       -2.135669    0.879280   -1.874081
   14          1             0       -2.134846   -0.877819   -1.875788
   15          1             0       -2.927628   -0.000901   -0.577287
 ---------------------------------------------------------------------
                    Distance matrix (angstroms):
                    1          2          3          4          5     
     1  C    0.000000
     2  C    1.385101   0.000000
     3  C    2.407750   1.384888   0.000000
     4  C    2.787791   2.398176   1.381466   0.000000
     5  C    2.408059   2.759327   2.389086   1.384653   0.000000
     6  C    1.388602   2.385580   2.758834   2.397743   1.381460
     7  H    2.128901   1.071943   2.130354   3.366502   3.831258
     8  H    3.374155   2.130327   1.071300   2.130242   3.362116
     9  H    3.858765   3.370020   2.132578   1.070973   2.134951
    10  H    3.375434   3.830635   3.361295   2.132597   1.071323
    11  H    2.131541   3.358169   3.831439   3.367826   2.128661
    12  C    1.516830   2.528576   3.804420   4.304584   3.795839
    13  H    2.152440   3.236880   4.427393   4.791730   4.134001
    14  H    2.152458   3.237648   4.427984   4.791809   4.133506
    15  H    2.155422   2.626220   4.008635   4.804169   4.562560
                    6          7          8          9         10     
     6  C    0.000000
     7  H    3.358771   0.000000
     8  H    3.830116   2.447836   0.000000
     9  H    3.368818   4.252065   2.457951   0.000000
    10  H    2.127992   4.902572   4.249893   2.459559   0.000000
    11  H    1.072611   4.246156   4.902725   4.252695   2.447165
    12  C    2.519363   2.723383   4.657809   5.375553   4.646663
    13  H    2.826749   3.471612   5.308069   5.842420   4.870444
    14  H    2.825954   3.472826   5.308912   5.842502   4.869658
    15  H    3.414555   2.371540   4.672804   5.856200   5.504073
                   11         12         13         14         15     
    11  H    0.000000
    12  C    2.705152   0.000000
    13  H    2.758055   1.084714   0.000000
    14  H    2.756549   1.084706   1.757100   0.000000
    15  H    3.752555   1.082383   1.756016   1.756016   0.000000
 Stoichiometry    C7H8
 Framework group  C1[X(C7H8)]
 Deg. of freedom   39
 Full point group                 C1      NOp   1
 Largest Abelian subgroup         C1      NOp   1
 Largest concise Abelian subgroup C1      NOp   1
                         Standard orientation:                         
 ---------------------------------------------------------------------
 Center     Atomic     Atomic              Coordinates (Angstroms)
 Number     Number      Type              X           Y           Z
 ---------------------------------------------------------------------
    1          6             0        0.899115    0.007791   -0.000035
    2          6             0        0.186983    1.195802   -0.000010
    3          6             0       -1.197897    1.190922   -0.000003
    4          6             0       -1.888645   -0.005454    0.000023
    5          6             0       -1.185231   -1.198130    0.000016
    6          6             0        0.196203   -1.189760   -0.000034
    7          1             0        0.714944    2.128711   -0.000040
    8          1             0       -1.732872    2.119085   -0.000012
    9          1             0       -2.959604   -0.010857    0.000030
   10          1             0       -1.712428   -2.130758    0.000017
   11          1             0        0.734701   -2.117399   -0.000052
   12          6             0        2.415934    0.001871    0.000026
   13          1             0        2.794843   -0.508162    0.879172
   14          1             0        2.794937   -0.510127   -0.877927
   15          1             0        2.806709    1.011250   -0.001077
 ---------------------------------------------------------------------
 Rotational constants (GHZ):      5.6348443      2.5461715      1.7728710
 Isotopes: C-12,C-12,C-12,C-12,C-12,C-12,H-1,H-1,H-1,H-1,H-1,C-12,H-1,H-1,H-1
 Standard basis: 3-21G (6D, 7F)
 There are    79 symmetry adapted basis functions of A   symmetry.
 Crude estimate of integral set expansion from redundant integrals=1.000.
 Integral buffers will be    262144 words long.
 Raffenetti 1 integral format.
 Two-electron integral symmetry is turned on.
    79 basis functions      129 primitive gaussians
    25 alpha electrons       25 beta electrons
       nuclear repulsion energy       271.0016363761 Hartrees.
 One-electron integrals computed using PRISM.
 NBasis=    79 RedAO= T  NBF=    79
 NBsUse=    79 1.00D-04 NBFU=    79
 Initial guess read from the read-write file:
 Requested convergence on RMS density matrix=1.00D-08 within  64 cycles.
 Requested convergence on MAX density matrix=1.00D-06.
 Keep R1 integrals in memory in canonical form, NReq=     5419692.
 SCF Done:  E(RHF) =  -268.240212719     A.U. after   10 cycles
             Convg  =    0.7061D-08             -V/T =  2.0016
             S**2   =   0.0000
 ***** Axes restored to original set *****
 -------------------------------------------------------------------
 Center     Atomic                   Forces (Hartrees/Bohr)
 Number     Number              X              Y              Z
 -------------------------------------------------------------------
    1          6          -0.000669766    0.000000973    0.000084640
    2          6           0.000065980   -0.000005378    0.000021863
    3          6           0.000169965    0.000003445    0.000119564
    4          6          -0.000171425   -0.000000791    0.000135432
    5          6          -0.000002227   -0.000003188   -0.000289996
    6          6           0.000389158    0.000003888   -0.000044076
    7          1          -0.000533586    0.000001130    0.000395401
    8          1          -0.000060143   -0.000000007    0.000778790
    9          1           0.000614145    0.000000316    0.000342414
   10          1           0.000668249    0.000000576   -0.000398383
   11          1           0.000082574   -0.000000986   -0.000648097
   12          6           0.000613350    0.000000307    0.000046346
   13          1          -0.000359490    0.000011989   -0.000195284
   14          1          -0.000359725   -0.000012282   -0.000195620
   15          1          -0.000447060    0.000000009   -0.000152994
 -------------------------------------------------------------------
 Cartesian Forces:  Max     0.000778790 RMS     0.000309254
 
 GradGradGradGradGradGradGradGradGradGradGradGradGradGradGradGradGradGrad
 Berny optimization.
 Internal  Forces:  Max     0.001138070 RMS     0.000354899
 Search for a local minimum.
 Step number   2 out of a maximum of  79
 All quantities printed in internal units (Hartrees-Bohrs-Radians)
 Update second derivatives using information from points  1  2
 Trust test= 8.90D-01 RLast= 5.50D-02 DXMaxT set to 3.00D-01
     Eigenvalues ---    0.00405   0.01470   0.02206   0.02236   0.02241
     Eigenvalues ---    0.02259   0.02268   0.02274   0.02276   0.02283
     Eigenvalues ---    0.07066   0.07112   0.15934   0.16000   0.16000
     Eigenvalues ---    0.16000   0.16000   0.16000   0.16000   0.16128
     Eigenvalues ---    0.22000   0.22010   0.23476   0.24972   0.29957
     Eigenvalues ---    0.35114   0.35116   0.35411   0.35663   0.35678
     Eigenvalues ---    0.35700   0.35717   0.37140   0.43111   0.43258
     Eigenvalues ---    0.47253   0.47937   0.48041   0.508961000.00000
     Eigenvalues --- 1000.000001000.000001000.000001000.000001000.00000
     Eigenvalues --- 1000.000001000.000001000.000001000.000001000.00000
     Eigenvalues --- 1000.000001000.000001000.000001000.000001000.00000
     Eigenvalues --- 1000.000001000.000001000.000001000.000001000.00000
     Eigenvalues --- 1000.000001000.000001000.000001000.000001000.00000
     Eigenvalues --- 1000.000001000.000001000.000001000.00000
 RFO step:  Lambda=-7.20476373D-06.
 Quartic linear search produced a step of -0.10701.
 Iteration  1 RMS(Cart)=  0.00192625 RMS(Int)=  0.00000126
 Iteration  2 RMS(Cart)=  0.00000115 RMS(Int)=  0.00000062
 Iteration  3 RMS(Cart)=  0.00000000 RMS(Int)=  0.00000062
 Variable       Old X    -DE/DX   Delta X   Delta X   Delta X     New X
                                 (Linear)    (Quad)   (Total)
    R1        2.61746   0.00090   0.00098   0.00066   0.00164   2.61910
    R2        2.62408   0.00114   0.00094   0.00116   0.00211   2.62618
    R3        2.86639   0.00073   0.00212  -0.00013   0.00199   2.86838
    R4        2.61706   0.00082   0.00047   0.00102   0.00149   2.61855
    R5        2.02568   0.00066   0.00210  -0.00065   0.00145   2.02713
    R6        2.61059   0.00068   0.00067   0.00052   0.00119   2.61178
    R7        2.02446   0.00078   0.00232  -0.00058   0.00174   2.02620
    R8        2.61662   0.00089   0.00057   0.00103   0.00160   2.61821
    R9        2.02385   0.00070   0.00229  -0.00074   0.00154   2.02539
   R10        2.61058   0.00058   0.00056   0.00047   0.00102   2.61160
   R11        2.02451   0.00078   0.00231  -0.00058   0.00173   2.02624
   R12        2.02694   0.00065   0.00201  -0.00057   0.00144   2.02838
   R13        2.04981   0.00014   0.00055  -0.00023   0.00032   2.05013
   R14        2.04980   0.00014   0.00055  -0.00023   0.00032   2.05011
   R15        2.04541   0.00026   0.00050   0.00011   0.00061   2.04601
    A1        2.07082  -0.00019  -0.00012  -0.00048  -0.00060   2.07021
    A2        2.11470   0.00029  -0.00004   0.00105   0.00101   2.11572
    A3        2.09767  -0.00010   0.00016  -0.00057  -0.00041   2.09726
    A4        2.10727   0.00008   0.00003   0.00031   0.00034   2.10761
    A5        2.08660   0.00004   0.00005   0.00023   0.00028   2.08688
    A6        2.08931  -0.00012  -0.00008  -0.00053  -0.00062   2.08869
    A7        2.09793  -0.00004  -0.00006  -0.00013  -0.00019   2.09774
    A8        2.09014  -0.00003   0.00007  -0.00024  -0.00017   2.08997
    A9        2.09511   0.00007   0.00000   0.00036   0.00036   2.09547
   A10        2.08511   0.00010   0.00020   0.00011   0.00031   2.08542
   A11        2.09945  -0.00003  -0.00011   0.00007  -0.00005   2.09941
   A12        2.09862  -0.00007  -0.00008  -0.00018  -0.00026   2.09836
   A13        2.09761  -0.00005  -0.00007  -0.00020  -0.00027   2.09734
   A14        2.09422   0.00004   0.00002   0.00021   0.00023   2.09445
   A15        2.09135   0.00001   0.00005  -0.00001   0.00004   2.09139
   A16        2.10763   0.00010   0.00003   0.00039   0.00042   2.10805
   A17        2.08486   0.00002   0.00008   0.00011   0.00019   2.08505
   A18        2.09070  -0.00012  -0.00011  -0.00051  -0.00061   2.09009
   A19        1.92963   0.00038   0.00039   0.00169   0.00208   1.93171
   A20        1.92966   0.00038   0.00039   0.00169   0.00208   1.93174
   A21        1.93627   0.00038  -0.00012   0.00222   0.00210   1.93837
   A22        1.88810  -0.00037  -0.00092  -0.00093  -0.00185   1.88625
   A23        1.88935  -0.00041   0.00012  -0.00246  -0.00234   1.88701
   A24        1.88936  -0.00041   0.00012  -0.00246  -0.00234   1.88702
    D1       -0.00002   0.00000   0.00001   0.00003   0.00003   0.00002
    D2       -3.14156   0.00000  -0.00001  -0.00001  -0.00002  -3.14158
    D3       -3.14154   0.00000   0.00000   0.00003   0.00003  -3.14151
    D4        0.00010   0.00000  -0.00001  -0.00001  -0.00002   0.00008
    D5       -0.00002   0.00000   0.00000   0.00001   0.00002   0.00000
    D6       -3.14159   0.00000   0.00000  -0.00002  -0.00002  -3.14161
    D7        3.14150   0.00000   0.00001   0.00001   0.00002   3.14152
    D8       -0.00007   0.00000   0.00000  -0.00002  -0.00002  -0.00009
    D9        2.09519  -0.00001   0.00032  -0.00050  -0.00018   2.09501
   D10       -2.09753   0.00001  -0.00033   0.00053   0.00020  -2.09732
   D11       -0.00115   0.00000   0.00000   0.00001   0.00001  -0.00114
   D12       -1.04633  -0.00001   0.00032  -0.00050  -0.00018  -1.04651
   D13        1.04414   0.00001  -0.00033   0.00053   0.00020   1.04434
   D14        3.14051   0.00000   0.00000   0.00001   0.00001   3.14052
   D15        0.00004   0.00000  -0.00001  -0.00004  -0.00006  -0.00002
   D16       -3.14156   0.00000  -0.00001  -0.00002  -0.00003  -3.14159
   D17        3.14158   0.00000   0.00000   0.00000   0.00000   3.14158
   D18       -0.00002   0.00000   0.00001   0.00002   0.00002   0.00001
   D19       -0.00002   0.00000   0.00001   0.00002   0.00003   0.00001
   D20        3.14159   0.00000   0.00000   0.00002   0.00002   3.14161
   D21        3.14158   0.00000   0.00000   0.00000   0.00000   3.14158
   D22        0.00001   0.00000   0.00000  -0.00001  -0.00001   0.00000
   D23       -0.00001   0.00000   0.00000   0.00002   0.00002   0.00001
   D24       -3.14157   0.00000   0.00000  -0.00001  -0.00001  -3.14159
   D25        3.14156   0.00000   0.00001   0.00002   0.00003   3.14159
   D26        0.00000   0.00000   0.00000  -0.00001   0.00000   0.00000
   D27        0.00004   0.00000  -0.00001  -0.00003  -0.00004  -0.00001
   D28       -3.14158   0.00000   0.00000  -0.00001  -0.00001  -3.14159
   D29       -3.14159   0.00000   0.00000   0.00000  -0.00001  -3.14160
   D30       -0.00002   0.00000   0.00001   0.00002   0.00003   0.00001
         Item               Value     Threshold  Converged?
 Maximum Force            0.001138     0.000450     NO 
 RMS     Force            0.000355     0.000300     NO 
 Maximum Displacement     0.005776     0.001800     NO 
 RMS     Displacement     0.001927     0.001200     NO 
 Predicted change in Energy=-1.039087D-05
 GradGradGradGradGradGradGradGradGradGradGradGradGradGradGradGradGradGrad
 
                          Input orientation:                          
 ---------------------------------------------------------------------
 Center     Atomic     Atomic              Coordinates (Angstroms)
 Number     Number      Type              X           Y           Z
 ---------------------------------------------------------------------
    1          6             0       -0.775481    0.000001   -0.455610
    2          6             0       -0.775432    0.000027    0.930358
    3          6             0        0.415362    0.000006    1.638954
    4          6             0        1.623549   -0.000064    0.967778
    5          6             0        1.634008   -0.000105   -0.417682
    6          6             0        0.444477   -0.000069   -1.121205
    7          1             0       -1.708414    0.000069    1.459749
    8          1             0        0.396489    0.000025    2.711007
    9          1             0        2.545516   -0.000094    1.514324
   10          1             0        2.566583   -0.000164   -0.946832
   11          1             0        0.460366   -0.000107   -2.194459
   12          6             0       -2.073554    0.000137   -1.242358
   13          1             0       -2.137752    0.878826   -1.875407
   14          1             0       -2.136935   -0.877365   -1.877122
   15          1             0       -2.929980   -0.000904   -0.579953
 ---------------------------------------------------------------------
                    Distance matrix (angstroms):
                    1          2          3          4          5     
     1  C    0.000000
     2  C    1.385968   0.000000
     3  C    2.409420   1.385677   0.000000
     4  C    2.789512   2.399273   1.382097   0.000000
     5  C    2.409787   2.760908   2.390575   1.385499   0.000000
     6  C    1.389717   2.386857   2.760312   2.398762   1.382002
     7  H    2.130485   1.072712   2.131324   3.368088   3.833606
     8  H    3.376533   2.131692   1.072219   2.131789   3.364543
     9  H    3.861302   3.371900   2.133796   1.071791   2.136233
    10  H    3.377971   3.833133   3.363635   2.134255   1.072239
    11  H    2.133287   3.360309   3.833677   3.369382   2.129406
    12  C    1.517882   2.530971   3.807448   4.307351   3.798171
    13  H    2.154980   3.240450   4.431867   4.796199   4.138073
    14  H    2.155000   3.241211   4.432470   4.796285   4.137579
    15  H    2.158085   2.631182   4.014333   4.809376   4.566872
                    6          7          8          9         10     
     6  C    0.000000
     7  H    3.360991   0.000000
     8  H    3.832512   2.448727   0.000000
     9  H    3.370516   4.254280   2.459749   0.000000
    10  H    2.129258   4.905837   4.253128   2.461246   0.000000
    11  H    1.073372   4.249334   4.905882   4.254753   2.448004
    12  C    2.520943   2.726667   4.661567   5.379135   4.649538
    13  H    2.830049   3.475602   5.313178   5.847715   4.875001
    14  H    2.829266   3.476813   5.314036   5.847808   4.874218
    15  H    3.417589   2.377522   4.679297   5.862342   5.508794
                   11         12         13         14         15     
    11  H    0.000000
    12  C    2.706888   0.000000
    13  H    2.761255   1.084881   0.000000
    14  H    2.759756   1.084874   1.756192   0.000000
    15  H    3.755140   1.082704   1.754922   1.754922   0.000000
 Stoichiometry    C7H8
 Framework group  C1[X(C7H8)]
 Deg. of freedom   39
 Full point group                 C1      NOp   1
 Largest Abelian subgroup         C1      NOp   1
 Largest concise Abelian subgroup C1      NOp   1
                         Standard orientation:                         
 ---------------------------------------------------------------------
 Center     Atomic     Atomic              Coordinates (Angstroms)
 Number     Number      Type              X           Y           Z
 ---------------------------------------------------------------------
    1          6             0        0.899739    0.008375   -0.000037
    2          6             0        0.186417    1.196684   -0.000031
    3          6             0       -1.199250    1.191402    0.000010
    4          6             0       -1.889737   -0.005853    0.000024
    5          6             0       -1.185686   -1.199134    0.000002
    6          6             0        0.196287   -1.190152   -0.000023
    7          1             0        0.713911    2.130740   -0.000053
    8          1             0       -1.734793    2.120298    0.000014
    9          1             0       -2.961511   -0.011727    0.000042
   10          1             0       -1.712956   -2.132774    0.000008
   11          1             0        0.735007   -2.118542   -0.000045
   12          6             0        2.417607    0.001859    0.000030
   13          1             0        2.798485   -0.507842    0.878724
   14          1             0        2.798588   -0.509809   -0.877466
   15          1             0        2.811008    1.010563   -0.001071
 ---------------------------------------------------------------------
 Rotational constants (GHZ):      5.6283749      2.5424317      1.7703975
 Isotopes: C-12,C-12,C-12,C-12,C-12,C-12,H-1,H-1,H-1,H-1,H-1,C-12,H-1,H-1,H-1
 Standard basis: 3-21G (6D, 7F)
 There are    79 symmetry adapted basis functions of A   symmetry.
 Crude estimate of integral set expansion from redundant integrals=1.000.
 Integral buffers will be    262144 words long.
 Raffenetti 1 integral format.
 Two-electron integral symmetry is turned on.
    79 basis functions      129 primitive gaussians
    25 alpha electrons       25 beta electrons
       nuclear repulsion energy       270.8271241078 Hartrees.
 One-electron integrals computed using PRISM.
 NBasis=    79 RedAO= T  NBF=    79
 NBsUse=    79 1.00D-04 NBFU=    79
 Initial guess read from the read-write file:
 Requested convergence on RMS density matrix=1.00D-08 within  64 cycles.
 Requested convergence on MAX density matrix=1.00D-06.
 Keep R1 integrals in memory in canonical form, NReq=     5419692.
 SCF Done:  E(RHF) =  -268.240223029     A.U. after    9 cycles
             Convg  =    0.4350D-08             -V/T =  2.0017
             S**2   =   0.0000
 ***** Axes restored to original set *****
 -------------------------------------------------------------------
 Center     Atomic                   Forces (Hartrees/Bohr)
 Number     Number              X              Y              Z
 -------------------------------------------------------------------
    1          6          -0.000211759    0.000000013    0.000097844
    2          6           0.000013992    0.000001478   -0.000188118
    3          6           0.000139173   -0.000001615   -0.000133912
    4          6          -0.000158040    0.000000081    0.000051132
    5          6          -0.000155041    0.000001249   -0.000038645
    6          6           0.000109452   -0.000001020    0.000063905
    7          1          -0.000062961   -0.000000203    0.000042735
    8          1          -0.000018289    0.000000246    0.000056148
    9          1           0.000072393    0.000000046    0.000034163
   10          1           0.000050895   -0.000000296   -0.000025140
   11          1          -0.000005597    0.000000188   -0.000065092
   12          6           0.000273721   -0.000000116    0.000098547
   13          1           0.000008024    0.000046131   -0.000034827
   14          1           0.000008008   -0.000046143   -0.000034941
   15          1          -0.000063972   -0.000000039    0.000076201
 -------------------------------------------------------------------
 Cartesian Forces:  Max     0.000273721 RMS     0.000084462
 
 GradGradGradGradGradGradGradGradGradGradGradGradGradGradGradGradGradGrad
 Berny optimization.
 Internal  Forces:  Max     0.000247498 RMS     0.000047798
 Search for a local minimum.
 Step number   3 out of a maximum of  79
 All quantities printed in internal units (Hartrees-Bohrs-Radians)
 Update second derivatives using information from points  1  2  3
 Trust test= 9.92D-01 RLast= 7.89D-03 DXMaxT set to 3.00D-01
     Eigenvalues ---    0.00405   0.01470   0.02206   0.02236   0.02241
     Eigenvalues ---    0.02259   0.02268   0.02274   0.02276   0.02283
     Eigenvalues ---    0.07043   0.07084   0.15867   0.15996   0.16000
     Eigenvalues ---    0.16000   0.16000   0.16000   0.16000   0.16188
     Eigenvalues ---    0.21997   0.22040   0.23534   0.24831   0.30817
     Eigenvalues ---    0.34932   0.35114   0.35282   0.35663   0.35668
     Eigenvalues ---    0.35697   0.35717   0.36333   0.43085   0.43316
     Eigenvalues ---    0.46584   0.47760   0.47958   0.543241000.00000
     Eigenvalues --- 1000.000001000.000001000.000001000.000001000.00000
     Eigenvalues --- 1000.000001000.000001000.000001000.000001000.00000
     Eigenvalues --- 1000.000001000.000001000.000001000.000001000.00000
     Eigenvalues --- 1000.000001000.000001000.000001000.000001000.00000
     Eigenvalues --- 1000.000001000.000001000.000001000.000001000.00000
     Eigenvalues --- 1000.000001000.000001000.000001000.00000
 RFO step:  Lambda=-4.26644925D-07.
 Quartic linear search produced a step of -0.02058.
 Iteration  1 RMS(Cart)=  0.00021517 RMS(Int)=  0.00000002
 Iteration  2 RMS(Cart)=  0.00000001 RMS(Int)=  0.00000001
 Variable       Old X    -DE/DX   Delta X   Delta X   Delta X     New X
                                 (Linear)    (Quad)   (Total)
    R1        2.61910  -0.00016  -0.00003  -0.00026  -0.00029   2.61881
    R2        2.62618   0.00003  -0.00004   0.00014   0.00010   2.62629
    R3        2.86838  -0.00025  -0.00004  -0.00073  -0.00077   2.86761
    R4        2.61855   0.00002  -0.00003   0.00010   0.00007   2.61862
    R5        2.02713   0.00008  -0.00003   0.00027   0.00024   2.02737
    R6        2.61178  -0.00011  -0.00002  -0.00017  -0.00020   2.61159
    R7        2.02620   0.00006  -0.00004   0.00023   0.00019   2.02640
    R8        2.61821   0.00002  -0.00003   0.00011   0.00008   2.61829
    R9        2.02539   0.00008  -0.00003   0.00028   0.00025   2.02564
   R10        2.61160  -0.00011  -0.00002  -0.00017  -0.00019   2.61141
   R11        2.02624   0.00006  -0.00004   0.00023   0.00019   2.02643
   R12        2.02838   0.00007  -0.00003   0.00024   0.00021   2.02859
   R13        2.05013   0.00006  -0.00001   0.00017   0.00017   2.05029
   R14        2.05011   0.00006  -0.00001   0.00017   0.00017   2.05028
   R15        2.04601   0.00010  -0.00001   0.00029   0.00028   2.04630
    A1        2.07021   0.00003   0.00001   0.00009   0.00010   2.07031
    A2        2.11572   0.00002  -0.00002   0.00011   0.00009   2.11580
    A3        2.09726  -0.00005   0.00001  -0.00020  -0.00019   2.09707
    A4        2.10761  -0.00002  -0.00001  -0.00008  -0.00009   2.10752
    A5        2.08688   0.00002  -0.00001   0.00010   0.00009   2.08697
    A6        2.08869   0.00000   0.00001  -0.00002   0.00000   2.08869
    A7        2.09774   0.00002   0.00000   0.00007   0.00007   2.09781
    A8        2.08997  -0.00003   0.00000  -0.00015  -0.00015   2.08983
    A9        2.09547   0.00001  -0.00001   0.00008   0.00008   2.09555
   A10        2.08542  -0.00001  -0.00001  -0.00003  -0.00004   2.08538
   A11        2.09941   0.00001   0.00000   0.00007   0.00007   2.09947
   A12        2.09836   0.00000   0.00001  -0.00004  -0.00003   2.09833
   A13        2.09734   0.00000   0.00001   0.00001   0.00001   2.09735
   A14        2.09445   0.00000   0.00000  -0.00002  -0.00002   2.09443
   A15        2.09139   0.00000   0.00000   0.00001   0.00001   2.09140
   A16        2.10805  -0.00002  -0.00001  -0.00005  -0.00006   2.10799
   A17        2.08505   0.00000   0.00000   0.00000   0.00000   2.08505
   A18        2.09009   0.00002   0.00001   0.00005   0.00006   2.09015
   A19        1.93171  -0.00001  -0.00004   0.00004   0.00000   1.93171
   A20        1.93174  -0.00001  -0.00004   0.00004   0.00000   1.93174
   A21        1.93837  -0.00002  -0.00004  -0.00005  -0.00010   1.93827
   A22        1.88625   0.00001   0.00004  -0.00006  -0.00002   1.88623
   A23        1.88701   0.00002   0.00005   0.00001   0.00006   1.88707
   A24        1.88702   0.00002   0.00005   0.00002   0.00006   1.88708
    D1        0.00002   0.00000   0.00000  -0.00001  -0.00001   0.00001
    D2       -3.14158   0.00000   0.00000   0.00000   0.00000  -3.14158
    D3       -3.14151   0.00000   0.00000  -0.00001  -0.00001  -3.14152
    D4        0.00008   0.00000   0.00000   0.00000   0.00000   0.00008
    D5        0.00000   0.00000   0.00000  -0.00001  -0.00001  -0.00001
    D6        3.14157   0.00000   0.00000   0.00000   0.00000   3.14158
    D7        3.14152   0.00000   0.00000  -0.00001  -0.00001   3.14151
    D8       -0.00009   0.00000   0.00000   0.00001   0.00001  -0.00008
    D9        2.09501   0.00000   0.00000   0.00002   0.00002   2.09503
   D10       -2.09732   0.00000   0.00000   0.00000   0.00000  -2.09733
   D11       -0.00114   0.00000   0.00000   0.00001   0.00001  -0.00113
   D12       -1.04651   0.00000   0.00000   0.00002   0.00002  -1.04649
   D13        1.04434   0.00000   0.00000   0.00000  -0.00001   1.04433
   D14        3.14052   0.00000   0.00000   0.00001   0.00001   3.14053
   D15       -0.00002   0.00000   0.00000   0.00002   0.00002   0.00000
   D16       -3.14159   0.00000   0.00000   0.00000   0.00000  -3.14159
   D17        3.14158   0.00000   0.00000   0.00000   0.00000   3.14158
   D18        0.00001   0.00000   0.00000  -0.00001  -0.00001  -0.00001
   D19        0.00001   0.00000   0.00000  -0.00001  -0.00001  -0.00001
   D20       -3.14158   0.00000   0.00000  -0.00001  -0.00001  -3.14159
   D21        3.14158   0.00000   0.00000   0.00001   0.00001   3.14158
   D22        0.00000   0.00000   0.00000   0.00001   0.00001   0.00000
   D23        0.00001   0.00000   0.00000  -0.00001  -0.00001   0.00000
   D24       -3.14159   0.00000   0.00000   0.00001   0.00001  -3.14158
   D25        3.14159   0.00000   0.00000  -0.00001  -0.00001   3.14158
   D26        0.00000   0.00000   0.00000   0.00001   0.00001   0.00000
   D27       -0.00001   0.00000   0.00000   0.00002   0.00002   0.00001
   D28       -3.14159   0.00000   0.00000   0.00001   0.00001  -3.14158
   D29        3.14159   0.00000   0.00000   0.00000   0.00000   3.14159
   D30        0.00001   0.00000   0.00000  -0.00001  -0.00001   0.00000
         Item               Value     Threshold  Converged?
 Maximum Force            0.000247     0.000450     YES
 RMS     Force            0.000048     0.000300     YES
 Maximum Displacement     0.000782     0.001800     YES
 RMS     Displacement     0.000215     0.001200     YES
 Predicted change in Energy=-2.178798D-07
 Optimization completed.
    -- Stationary point found.
                         ----------------------------
                         !   Optimized Parameters   !
                         ! (Angstroms and Degrees)  !
 ------------------------                            -------------------------
 ! Name  Definition              Value          Derivative Info.             !
 -----------------------------------------------------------------------------
 ! R1    R(1,2)                  1.386          -DE/DX =   -0.0002           !
 ! R2    R(1,6)                  1.3897         -DE/DX =    0.               !
 ! R3    R(1,12)                 1.5179         -DE/DX =   -0.0002           !
 ! R4    R(2,3)                  1.3857         -DE/DX =    0.               !
 ! R5    R(2,7)                  1.0727         -DE/DX =    0.0001           !
 ! R6    R(3,4)                  1.3821         -DE/DX =   -0.0001           !
 ! R7    R(3,8)                  1.0722         -DE/DX =    0.0001           !
 ! R8    R(4,5)                  1.3855         -DE/DX =    0.               !
 ! R9    R(4,9)                  1.0718         -DE/DX =    0.0001           !
 ! R10   R(5,6)                  1.382          -DE/DX =   -0.0001           !
 ! R11   R(5,10)                 1.0722         -DE/DX =    0.0001           !
 ! R12   R(6,11)                 1.0734         -DE/DX =    0.0001           !
 ! R13   R(12,13)                1.0849         -DE/DX =    0.0001           !
 ! R14   R(12,14)                1.0849         -DE/DX =    0.0001           !
 ! R15   R(12,15)                1.0827         -DE/DX =    0.0001           !
 ! A1    A(2,1,6)              118.6144         -DE/DX =    0.               !
 ! A2    A(2,1,12)             121.2216         -DE/DX =    0.               !
 ! A3    A(6,1,12)             120.164          -DE/DX =    0.               !
 ! A4    A(1,2,3)              120.7573         -DE/DX =    0.               !
 ! A5    A(1,2,7)              119.5694         -DE/DX =    0.               !
 ! A6    A(3,2,7)              119.6734         -DE/DX =    0.               !
 ! A7    A(2,3,4)              120.1915         -DE/DX =    0.               !
 ! A8    A(2,3,8)              119.7467         -DE/DX =    0.               !
 ! A9    A(4,3,8)              120.0618         -DE/DX =    0.               !
 ! A10   A(3,4,5)              119.4857         -DE/DX =    0.               !
 ! A11   A(3,4,9)              120.2871         -DE/DX =    0.               !
 ! A12   A(5,4,9)              120.2271         -DE/DX =    0.               !
 ! A13   A(4,5,6)              120.1688         -DE/DX =    0.               !
 ! A14   A(4,5,10)             120.0034         -DE/DX =    0.               !
 ! A15   A(6,5,10)             119.8278         -DE/DX =    0.               !
 ! A16   A(1,6,5)              120.7823         -DE/DX =    0.               !
 ! A17   A(1,6,11)             119.4645         -DE/DX =    0.               !
 ! A18   A(5,6,11)             119.7531         -DE/DX =    0.               !
 ! A19   A(1,12,13)            110.6787         -DE/DX =    0.               !
 ! A20   A(1,12,14)            110.6808         -DE/DX =    0.               !
 ! A21   A(1,12,15)            111.0601         -DE/DX =    0.               !
 ! A22   A(13,12,14)           108.074          -DE/DX =    0.               !
 ! A23   A(13,12,15)           108.1178         -DE/DX =    0.               !
 ! A24   A(14,12,15)           108.1183         -DE/DX =    0.               !
 ! D1    D(6,1,2,3)              0.001          -DE/DX =    0.               !
 ! D2    D(6,1,2,7)           -179.9993         -DE/DX =    0.               !
 ! D3    D(12,1,2,3)          -179.995          -DE/DX =    0.               !
 ! D4    D(12,1,2,7)             0.0047         -DE/DX =    0.               !
 ! D5    D(2,1,6,5)             -0.0003         -DE/DX =    0.               !
 ! D6    D(2,1,6,11)           179.999          -DE/DX =    0.               !
 ! D7    D(12,1,6,5)           179.9958         -DE/DX =    0.               !
 ! D8    D(12,1,6,11)           -0.005          -DE/DX =    0.               !
 ! D9    D(2,1,12,13)          120.0352         -DE/DX =    0.               !
 ! D10   D(2,1,12,14)         -120.1679         -DE/DX =    0.               !
 ! D11   D(2,1,12,15)           -0.0653         -DE/DX =    0.               !
 ! D12   D(6,1,12,13)          -59.9608         -DE/DX =    0.               !
 ! D13   D(6,1,12,14)           59.8362         -DE/DX =    0.               !
 ! D14   D(6,1,12,15)          179.9387         -DE/DX =    0.               !
 ! D15   D(1,2,3,4)             -0.001          -DE/DX =    0.               !
 ! D16   D(1,2,3,8)           -179.9999         -DE/DX =    0.               !
 ! D17   D(7,2,3,4)            179.9993         -DE/DX =    0.               !
 ! D18   D(7,2,3,8)              0.0004         -DE/DX =    0.               !
 ! D19   D(2,3,4,5)              0.0003         -DE/DX =    0.               !
 ! D20   D(2,3,4,9)           -179.9991         -DE/DX =    0.               !
 ! D21   D(8,3,4,5)            179.9992         -DE/DX =    0.               !
 ! D22   D(8,3,4,9)             -0.0002         -DE/DX =    0.               !
 ! D23   D(3,4,5,6)              0.0004         -DE/DX =    0.               !
 ! D24   D(3,4,5,10)          -179.9997         -DE/DX =    0.               !
 ! D25   D(9,4,5,6)            179.9999         -DE/DX =    0.               !
 ! D26   D(9,4,5,10)            -0.0002         -DE/DX =    0.               !
 ! D27   D(4,5,6,1)             -0.0004         -DE/DX =    0.               !
 ! D28   D(4,5,6,11)          -179.9997         -DE/DX =    0.               !
 ! D29   D(10,5,6,1)           179.9997         -DE/DX =    0.               !
 ! D30   D(10,5,6,11)            0.0004         -DE/DX =    0.               !
 -----------------------------------------------------------------------------
 GradGradGradGradGradGradGradGradGradGradGradGradGradGradGradGradGradGrad
 
                          Input orientation:                          
 ---------------------------------------------------------------------
 Center     Atomic     Atomic              Coordinates (Angstroms)
 Number     Number      Type              X           Y           Z
 ---------------------------------------------------------------------
    1          6             0       -0.775750    0.000003   -0.455864
    2          6             0       -0.775701    0.000029    0.930104
    3          6             0        0.415093    0.000008    1.638700
    4          6             0        1.623280   -0.000061    0.967524
    5          6             0        1.633739   -0.000103   -0.417936
    6          6             0        0.444208   -0.000066   -1.121459
    7          1             0       -1.708683    0.000072    1.459495
    8          1             0        0.396220    0.000028    2.710753
    9          1             0        2.545247   -0.000092    1.514070
   10          1             0        2.566314   -0.000162   -0.947086
   11          1             0        0.460097   -0.000104   -2.194713
   12          6             0       -2.073823    0.000139   -1.242613
   13          1             0       -2.138020    0.878828   -1.875661
   14          1             0       -2.137204   -0.877363   -1.877376
   15          1             0       -2.930249   -0.000901   -0.580208
 ---------------------------------------------------------------------
                    Distance matrix (angstroms):
                    1          2          3          4          5     
     1  C    0.000000
     2  C    1.385968   0.000000
     3  C    2.409420   1.385677   0.000000
     4  C    2.789512   2.399273   1.382097   0.000000
     5  C    2.409787   2.760908   2.390575   1.385499   0.000000
     6  C    1.389717   2.386857   2.760312   2.398762   1.382002
     7  H    2.130485   1.072712   2.131324   3.368088   3.833606
     8  H    3.376533   2.131692   1.072219   2.131789   3.364543
     9  H    3.861302   3.371900   2.133796   1.071791   2.136233
    10  H    3.377971   3.833133   3.363635   2.134255   1.072239
    11  H    2.133287   3.360309   3.833677   3.369382   2.129406
    12  C    1.517882   2.530971   3.807448   4.307351   3.798171
    13  H    2.154980   3.240450   4.431867   4.796199   4.138073
    14  H    2.155000   3.241211   4.432470   4.796285   4.137579
    15  H    2.158085   2.631182   4.014333   4.809376   4.566872
                    6          7          8          9         10     
     6  C    0.000000
     7  H    3.360991   0.000000
     8  H    3.832512   2.448727   0.000000
     9  H    3.370516   4.254280   2.459749   0.000000
    10  H    2.129258   4.905837   4.253128   2.461246   0.000000
    11  H    1.073372   4.249334   4.905882   4.254753   2.448004
    12  C    2.520943   2.726667   4.661567   5.379135   4.649538
    13  H    2.830049   3.475602   5.313178   5.847715   4.875001
    14  H    2.829266   3.476813   5.314036   5.847808   4.874218
    15  H    3.417589   2.377522   4.679297   5.862342   5.508794
                   11         12         13         14         15     
    11  H    0.000000
    12  C    2.706888   0.000000
    13  H    2.761255   1.084881   0.000000
    14  H    2.759756   1.084874   1.756192   0.000000
    15  H    3.755140   1.082704   1.754922   1.754922   0.000000
 Stoichiometry    C7H8
 Framework group  C1[X(C7H8)]
 Deg. of freedom   39
 Full point group                 C1      NOp   1
 Largest Abelian subgroup         C1      NOp   1
 Largest concise Abelian subgroup C1      NOp   1
                         Standard orientation:                         
 ---------------------------------------------------------------------
 Center     Atomic     Atomic              Coordinates (Angstroms)
 Number     Number      Type              X           Y           Z
 ---------------------------------------------------------------------
    1          6             0        0.899739    0.008375   -0.000037
    2          6             0        0.186417    1.196684   -0.000031
    3          6             0       -1.199250    1.191402    0.000010
    4          6             0       -1.889737   -0.005853    0.000024
    5          6             0       -1.185686   -1.199134    0.000002
    6          6             0        0.196287   -1.190152   -0.000023
    7          1             0        0.713911    2.130740   -0.000053
    8          1             0       -1.734793    2.120298    0.000014
    9          1             0       -2.961511   -0.011727    0.000042
   10          1             0       -1.712956   -2.132774    0.000008
   11          1             0        0.735007   -2.118542   -0.000045
   12          6             0        2.417607    0.001859    0.000030
   13          1             0        2.798485   -0.507842    0.878724
   14          1             0        2.798588   -0.509809   -0.877466
   15          1             0        2.811008    1.010563   -0.001071
 ---------------------------------------------------------------------
 Rotational constants (GHZ):      5.6283749      2.5424317      1.7703975
 Isotopes: C-12,C-12,C-12,C-12,C-12,C-12,H-1,H-1,H-1,H-1,H-1,C-12,H-1,H-1,H-1

 **********************************************************************

            Population analysis using the SCF density.

 **********************************************************************

 Alpha  occ. eigenvalues --  -11.18455 -11.17315 -11.17278 -11.16988 -11.16952
 Alpha  occ. eigenvalues --  -11.16925 -11.16256  -1.15877  -1.04505  -1.01359
 Alpha  occ. eigenvalues --   -0.93574  -0.82732  -0.80038  -0.70220  -0.63892
 Alpha  occ. eigenvalues --   -0.62774  -0.58878  -0.57829  -0.56909  -0.53990
 Alpha  occ. eigenvalues --   -0.49373  -0.48358  -0.48166  -0.33688  -0.32629
 Alpha virt. eigenvalues --    0.15044   0.15654   0.26225   0.29911   0.31412
 Alpha virt. eigenvalues --    0.33813   0.34141   0.35668   0.37927   0.38471
 Alpha virt. eigenvalues --    0.40814   0.44123   0.51637   0.53292   0.53820
 Alpha virt. eigenvalues --    0.57555   0.77606   0.83323   0.89203   0.91572
 Alpha virt. eigenvalues --    0.94195   0.98323   0.98591   0.99114   1.04962
 Alpha virt. eigenvalues --    1.05693   1.08803   1.09094   1.11081   1.12287
 Alpha virt. eigenvalues --    1.15400   1.19113   1.21128   1.22118   1.29727
 Alpha virt. eigenvalues --    1.32019   1.35629   1.35638   1.37180   1.41901
 Alpha virt. eigenvalues --    1.44969   1.46067   1.56631   1.60385   1.62286
 Alpha virt. eigenvalues --    1.72807   1.76337   1.80390   1.82354   1.88701
 Alpha virt. eigenvalues --    2.16577   2.19993   2.23837   2.78213
          Condensed to atoms (all electrons):
              1          2          3          4          5          6
  1  C    5.314538   0.478238  -0.109461  -0.003035  -0.105190   0.460298
  2  C    0.478238   5.162315   0.473118  -0.109193  -0.004086  -0.089942
  3  C   -0.109461   0.473118   5.166174   0.477045  -0.113436  -0.004023
  4  C   -0.003035  -0.109193   0.477045   5.181599   0.471818  -0.109487
  5  C   -0.105190  -0.004086  -0.113436   0.471818   5.159805   0.480498
  6  C    0.460298  -0.089942  -0.004023  -0.109487   0.480498   5.182343
  7  H   -0.035252   0.401115  -0.030470   0.002331  -0.000072   0.002369
  8  H    0.002622  -0.033200   0.398966  -0.032700   0.002458  -0.000131
  9  H   -0.000151   0.002477  -0.032444   0.399783  -0.032282   0.002487
 10  H    0.002542  -0.000122   0.002455  -0.032531   0.399251  -0.033538
 11  H   -0.036786   0.002205  -0.000064   0.002354  -0.030234   0.402807
 12  C    0.256047  -0.050875   0.002198   0.000124   0.001503  -0.061977
 13  H   -0.051776   0.001075  -0.000062   0.000009   0.000062  -0.001535
 14  H   -0.051769   0.001082  -0.000062   0.000009   0.000062  -0.001535
 15  H   -0.050407  -0.000302   0.000212  -0.000001  -0.000057   0.002776
              7          8          9         10         11         12
  1  C   -0.035252   0.002622  -0.000151   0.002542  -0.036786   0.256047
  2  C    0.401115  -0.033200   0.002477  -0.000122   0.002205  -0.050875
  3  C   -0.030470   0.398966  -0.032444   0.002455  -0.000064   0.002198
  4  C    0.002331  -0.032700   0.399783  -0.032531   0.002354   0.000124
  5  C   -0.000072   0.002458  -0.032282   0.399251  -0.030234   0.001503
  6  C    0.002369  -0.000131   0.002487  -0.033538   0.402807  -0.061977
  7  H    0.428529  -0.001454  -0.000037   0.000002  -0.000044  -0.001308
  8  H   -0.001454   0.427275  -0.001420  -0.000037   0.000002  -0.000045
  9  H   -0.000037  -0.001420   0.426049  -0.001373  -0.000037   0.000001
 10  H    0.000002  -0.000037  -0.001373   0.427269  -0.001458  -0.000046
 11  H   -0.000044   0.000002  -0.000037  -0.001458   0.428180  -0.000924
 12  C   -0.001308  -0.000045   0.000001  -0.000046  -0.000924   5.291399
 13  H    0.000016   0.000001   0.000000   0.000001   0.000384   0.381596
 14  H    0.000016   0.000001   0.000000   0.000001   0.000386   0.381616
 15  H    0.001458  -0.000001   0.000000   0.000000   0.000009   0.387640
             13         14         15
  1  C   -0.051776  -0.051769  -0.050407
  2  C    0.001075   0.001082  -0.000302
  3  C   -0.000062  -0.000062   0.000212
  4  C    0.000009   0.000009  -0.000001
  5  C    0.000062   0.000062  -0.000057
  6  C   -0.001535  -0.001535   0.002776
  7  H    0.000016   0.000016   0.001458
  8  H    0.000001   0.000001  -0.000001
  9  H    0.000000   0.000000   0.000000
 10  H    0.000001   0.000001   0.000000
 11  H    0.000384   0.000386   0.000009
[...]
       C3-C2-C6= 90.0185       C1-C6-C4= 90.8251       C2-C6-C4= 60.1782
       C3-C4-C6= 89.6118       C1-C6-C5=120.7823       C2-C6-C5= 90.1355
       C3-C5-C6= 89.9527       C4-C5-C6=120.1688       C1-C2-H7=119.5694
       C1-H7-C3= 68.8534       C3-C2-H7=119.6734       C4-C1-H7= 85.2884
       C4-C2-H7=149.535        C4-C3-H7=146.1236       C5-C1-H7=115.068 
       C5-C2-H7=179.6549       C5-C3-H7=115.8254       C6-C1-H7=144.5862
       C6-C2-H7=150.3081       C6-C3-H7= 85.7811       C1-C2-H8=146.6514
       C1-C3-H8=149.3715       C2-C3-H8=119.7467       C1-C4-H8= 85.5397
       C2-H8-C4= 68.4923       C4-C3-H8=120.0618       C5-C2-H8= 85.8756
       C5-C3-H8=150.36         C5-C4-H8=145.2908       C6-C2-H8=115.9126
       C6-C3-H8=179.5958       C6-C4-H8=115.4168       C1-H7-H8= 94.7595
       H7-C2-H8= 93.7792       H7-C3-H8= 93.8146       C4-H8-H7= 94.4124
       C1-C3-H9=116.2715       C2-C3-H9=145.8963       C1-C4-H9=179.9782
       C2-C4-H9=150.234        C3-C4-H9=120.2871       C1-C5-H9=116.1595
       C2-C5-H9= 86.0314       C3-H9-C5= 68.0908       C5-C4-H9=120.2271
       C6-C3-H9= 86.0472       C6-C4-H9=150.1011       C6-C5-H9=145.8589
       H7-C3-H9=171.8284       C2-H8-H9= 94.2394       H8-C3-H9= 94.357 
       H8-C4-H9= 94.4821       C5-H9-H8= 93.8536       H7-H8-H9=120.1595
      C1-C4-H10= 85.541       C2-C4-H10=115.3287      C3-C4-H10=145.2756
      C1-C5-H10=149.5273      C2-C5-H10=179.6554      C3-C5-H10=150.2195
      C4-C5-H10=120.0034      C1-C6-H10=146.6862      C2-C6-H10=116.0393
      C3-C6-H10= 85.9069      C4-H10-C6= 68.475       C6-C5-H10=119.8278
      H8-C4-H10=171.0807      C3-H9-H10= 93.8389      H9-C4-H10= 94.4373
      H9-C5-H10= 94.3133      C6-H10-H9= 94.207       H8-H9-H10=119.6016
      C2-C1-H11=144.5956      C3-C1-H11=114.9776      C4-C1-H11= 85.279 
      C1-H11-C5= 68.849       C2-C5-H11= 85.7797      C3-C5-H11=115.9048
      C4-C5-H11=146.1209      C1-C6-H11=119.4645      C2-C6-H11=150.1114
      C3-C6-H11=179.7562      C4-C6-H11=149.7104      C5-C6-H11=119.7531
      H7-C1-H11=170.5674      H9-C5-H11=171.8111     C1-H11-H10= 94.7619
     C4-H10-H11= 94.4182     H10-C5-H11= 93.8757     H10-C6-H11= 93.8493
     H9-H10-H11=120.1501      C2-C1-C12=121.2216      C3-C1-C12=150.8396
      C3-C2-C12=151.6121      C4-C1-C12=179.4618      C4-C2-C12=121.7505
      C5-C1-C12=149.6822      C5-C2-C12= 91.6306      C6-C1-C12=120.164 
      C2-C6-C12= 62.0179      C3-C6-C12= 92.1503      C4-C6-C12=122.1961
      C5-C6-C12=152.1533      H7-C1-C12= 95.2498      H7-C2-C12= 88.7145
      C3-H7-C12=102.519       C6-C12-H7= 79.5495      H8-C2-C12=177.5062
      H8-H7-C12=128.4252     H10-C6-C12=178.0572     H11-C1-C12= 94.1828
     C2-C12-H11= 79.7365     C5-H11-C12=102.8533     H11-C6-C12= 88.0935
     H7-C12-H11=102.8975    H10-H11-C12=128.7661      C2-C1-H13=131.2129
      C3-C1-H13=152.2743      C4-C1-H13=151.6248      C5-C1-H13=129.9755
      C6-C1-H13=103.8512      C2-C6-H13= 76.2734      C3-C6-H13=104.8833
      C4-C6-H13=132.8884      C5-C6-H13=157.0772      H7-C1-H13=108.3903
     H10-C6-H13=158.6236     H11-C1-H13= 80.1662     C5-H11-H13=114.9726
     C6-H11-H13= 82.5609    H10-H11-H13=138.6483     C1-C12-H13=110.6787
     C2-C12-H13=122.0939     C6-C12-H13= 95.0035     H7-C12-H13=125.8884
    H11-C12-H13= 81.386       C2-C1-H14=131.2743      C3-C1-H14=152.3356
      C4-C1-H14=151.6312      C5-C1-H14=129.9449      C6-C1-H14=103.8066
      C2-C6-H14= 76.3104      C3-C6-H14=104.9246      C4-C6-H14=132.9334
      C5-C6-H14=157.1211      H7-C1-H14=108.4449     H10-C6-H14=158.6223
     H11-C1-H14= 80.1134     C5-H11-H14=115.0096     C6-H11-H14= 82.5943
    H10-H11-H14=138.6878     C1-C12-H14=110.6808     C2-C12-H14=122.1551
     C6-C12-H14= 94.957      H7-C12-H14=125.9895    H11-C12-H14= 81.3045
     C1-H13-H14= 65.9545     C6-H14-H13= 71.9459    H11-H14-H13= 71.4988
    H13-C12-H14=108.074       C2-C1-H15= 93.3051      C3-C1-H15=122.923 
      C3-C2-H15=175.7252      C4-C1-H15=152.6216      C4-C2-H15=145.8637
      C5-C1-H15=177.5986      C5-C2-H15=115.7438      C6-C1-H15=148.0805
      C6-C2-H15= 85.7068      H7-C1-H15= 67.3333      C2-H7-H15= 91.3458
      C3-H7-H15=125.7403      H8-C2-H15=158.3806      H8-H7-H15=151.6465
     H11-C1-H15=122.0993     C1-C12-H15=111.0601     C2-C12-H15= 83.1366
     C6-C12-H15=139.5251     H7-H15-C12= 96.8031    H11-C12-H15=162.873 
     C1-H13-H15= 66.0833     C2-H15-H13= 93.089      C6-H13-H15= 93.4109
     H7-H15-H13=113.6498    H11-H13-H15=110.5173    H13-C12-H15=108.1178
     C1-H14-H15= 66.0828     C2-H15-H14= 93.1196     C6-H14-H15= 93.4375
     H7-H15-H14=113.7129    H11-H14-H15=110.5812    H14-C12-H15=108.1183
    H13-H15-H14= 60.0479
 Stoichiometry    C7H8
 Framework group  C1[X(C7H8)]
 Deg. of freedom   39
 Full point group                 C1      NOp   1
 Largest Abelian subgroup         C1      NOp   1
 Largest concise Abelian subgroup C1      NOp   1
                         Standard orientation:                         
 ---------------------------------------------------------------------
 Center     Atomic     Atomic              Coordinates (Angstroms)
 Number     Number      Type              X           Y           Z
 ---------------------------------------------------------------------
    1          6             0        0.899739    0.008375   -0.000037
    2          6             0        0.186417    1.196684   -0.000031
    3          6             0       -1.199250    1.191402    0.000010
    4          6             0       -1.889737   -0.005853    0.000024
    5          6             0       -1.185686   -1.199134    0.000002
    6          6             0        0.196287   -1.190152   -0.000023
    7          1             0        0.713911    2.130740   -0.000053
    8          1             0       -1.734793    2.120298    0.000014
    9          1             0       -2.961511   -0.011727    0.000042
   10          1             0       -1.712956   -2.132774    0.000008
   11          1             0        0.735007   -2.118542   -0.000045
   12          6             0        2.417607    0.001859    0.000030
   13          1             0        2.798485   -0.507842    0.878724
   14          1             0        2.798588   -0.509809   -0.877466
   15          1             0        2.811008    1.010563   -0.001071
 ---------------------------------------------------------------------
 Rotational constants (GHZ):      5.6283749      2.5424317      1.7703975
 Isotopes: C-12,C-12,C-12,C-12,C-12,C-12,H-1,H-1,H-1,H-1,H-1,C-12,H-1,H-1,H-1
 Standard basis: 3-21G (6D, 7F)
 There are    79 symmetry adapted basis functions of A   symmetry.
 Crude estimate of integral set expansion from redundant integrals=1.000.
 Integral buffers will be    262144 words long.
 Raffenetti 1 integral format.
 Two-electron integral symmetry is turned on.
    79 basis functions      129 primitive gaussians
    25 alpha electrons       25 beta electrons
       nuclear repulsion energy       270.8271241078 Hartrees.
 One-electron integrals computed using PRISM.
 NBasis=    79 RedAO= T  NBF=    79
 NBsUse=    79 1.00D-04 NBFU=    79
 Initial guess read from the checkpoint file:
 hp_jmol_nmr.chk
 Requested convergence on RMS density matrix=1.00D-08 within  64 cycles.
 Requested convergence on MAX density matrix=1.00D-06.
 Keep R1 integrals in memory in canonical form, NReq=     5419692.
 SCF Done:  E(RHF) =  -268.240223029     A.U. after    1 cycles
             Convg  =    0.1631D-08             -V/T =  2.0017
             S**2   =   0.0000
 Range of M.O.s used for correlation:     1    79
 NBasis=    79 NAE=    25 NBE=    25 NFC=     0 NFV=     0
 NROrb=     79 NOA=    25 NOB=    25 NVA=    54 NVB=    54
          Differentiating once with respect to magnetic field using GIAOs.
          Store integrals in memory, NReq=     5404734.
          There are   3 degrees of freedom in the 1st order CPHF.
   3 vectors were produced by pass  0.
 AX will form   3 AO Fock derivatives at one time.
   3 vectors were produced by pass  1.
   3 vectors were produced by pass  2.
   3 vectors were produced by pass  3.
   3 vectors were produced by pass  4.
   3 vectors were produced by pass  5.
   3 vectors were produced by pass  6.
   3 vectors were produced by pass  7.
 Inv2:  IOpt= 1 Iter= 1 AM= 7.49D-16 Conv= 1.00D-12.
 Inverted reduced A of dimension  24 with in-core refinement.
 Calculating GIAO nuclear magnetic shielding tensors.
 SCF GIAO Magnetic shielding tensor (ppm):
  1  C    Isotropic =    86.2306   Anisotropy =   183.0239
   XX=   -10.8893   YX=    -0.4058   ZX=    -0.0010
   XY=    -0.2095   YY=    61.3345   ZY=     0.0005
   XZ=     0.0043   YZ=    -0.0003   ZZ=   208.2465
   Eigenvalues:   -10.8906    61.3358   208.2465
  2  C    Isotropic =    93.5131   Anisotropy =   154.0045
   XX=    65.9416   YX=   -39.3247   ZX=     0.0015
   XY=   -41.3799   YY=    18.4149   ZY=     0.0034
   XZ=    -0.0196   YZ=     0.0087   ZZ=   196.1828
   Eigenvalues:    -4.6513    89.0078   196.1828
  3  C    Isotropic =    93.4525   Anisotropy =   173.8174
   XX=    56.2342   YX=    40.1971   ZX=     0.0035
   XY=    39.0356   YY=    14.7926   ZY=     0.0001
   XZ=     0.0028   YZ=    -0.0021   ZZ=   209.3308
   Eigenvalues:    -9.1947    80.2214   209.3308
  4  C    Isotropic =    96.4808   Anisotropy =   172.2444
   XX=    -4.1417   YX=     1.4073   ZX=     0.0040
   XY=     0.5383   YY=    82.2737   ZY=    -0.0005
   XZ=     0.0135   YZ=     0.0003   ZZ=   211.3104
   Eigenvalues:    -4.1526    82.2846   211.3104
  5  C    Isotropic =    93.2987   Anisotropy =   174.3607
   XX=    58.8124   YX=   -39.3805   ZX=     0.0025
   XY=   -37.4930   YY=    11.5446   ZY=    -0.0008
   XZ=     0.0026   YZ=     0.0014   ZZ=   209.5392
   Eigenvalues:    -9.9429    80.3000   209.5392
  6  C    Isotropic =    93.5474   Anisotropy =   161.1166
   XX=    61.6297   YX=    35.7468   ZX=     0.0005
   XY=    43.1684   YY=    18.0541   ZY=    -0.0028
   XZ=    -0.0203   YZ=    -0.0082   ZZ=   200.9585
   Eigenvalues:    -5.2315    84.9153   200.9585
  7  H    Isotropic =    26.4777   Anisotropy =     4.5559
   XX=    28.4700   YX=    -1.5006   ZX=     0.0000
   XY=    -1.1527   YY=    27.8308   ZY=     0.0001
   XZ=    -0.0001   YZ=    -0.0012   ZZ=    23.1322
   Eigenvalues:    23.1322    26.7858    29.5150
  8  H    Isotropic =    26.3523   Anisotropy =     2.4632
   XX=    27.9925   YX=     0.0471   ZX=    -0.0001
   XY=    -0.1086   YY=    27.5163   ZY=     0.0001
   XZ=    -0.0002   YZ=    -0.0002   ZZ=    23.5482
   Eigenvalues:    23.5482    27.5143    27.9944
  9  H    Isotropic =    26.4633   Anisotropy =     2.3301
   XX=    28.0134   YX=     0.0179   ZX=    -0.0002
   XY=     0.0496   YY=    27.6713   ZY=     0.0000
   XZ=     0.0006   YZ=     0.0000   ZZ=    23.7053
   Eigenvalues:    23.7053    27.6679    28.0167
 10  H    Isotropic =    26.2818   Anisotropy =     2.5917
   XX=    28.0080   YX=    -0.0442   ZX=    -0.0001
   XY=     0.1057   YY=    27.4182   ZY=    -0.0001
   XZ=    -0.0001   YZ=     0.0001   ZZ=    23.4192
   Eigenvalues:    23.4192    27.4166    28.0096
 11  H    Isotropic =    26.3579   Anisotropy =     5.1144
   XX=    28.5915   YX=     1.8307   ZX=     0.0000
   XY=     1.3105   YY=    27.6698   ZY=    -0.0002
   XZ=     0.0000   YZ=     0.0012   ZZ=    22.8123
   Eigenvalues:    22.8123    26.4939    29.7675
 12  C    Isotropic =   192.8594   Anisotropy =    32.8818
   XX=   214.4983   YX=     4.7908   ZX=    -0.0148
   XY=     0.6157   YY=   188.8905   ZY=    -0.0002
   XZ=     0.0089   YZ=     0.0004   ZZ=   175.1893
   Eigenvalues:   175.1893   188.6082   214.7806
 13  H    Isotropic =    31.1352   Anisotropy =     9.9611
   XX=    33.3061   YX=    -1.8261   ZX=     3.4605
   XY=    -1.3487   YY=    29.5597   ZY=    -3.1564
   XZ=     5.0717   YZ=    -3.6556   ZZ=    30.5398
   Eigenvalues:    26.0770    29.5527    37.7760
 14  H    Isotropic =    31.1357   Anisotropy =     9.9603
   XX=    33.3075   YX=    -1.8342   ZX=    -3.4574
   XY=    -1.3541   YY=    29.5758   ZY=     3.1638
   XZ=    -5.0642   YZ=     3.6628   ZZ=    30.5239
   Eigenvalues:    26.0723    29.5590    37.7759
 15  H    Isotropic =    31.7816   Anisotropy =     9.5836
   XX=    33.8943   YX=     4.2575   ZX=    -0.0051
   XY=     2.6811   YY=    35.3561   ZY=    -0.0072
   XZ=    -0.0060   YZ=    -0.0072   ZZ=    26.0944
   Eigenvalues:    26.0944    31.0798    38.1707

 **********************************************************************

            Population analysis using the SCF density.

 **********************************************************************

 Alpha  occ. eigenvalues --  -11.18455 -11.17315 -11.17278 -11.16988 -11.16952
 Alpha  occ. eigenvalues --  -11.16925 -11.16256  -1.15877  -1.04505  -1.01359
 Alpha  occ. eigenvalues --   -0.93574  -0.82732  -0.80038  -0.70220  -0.63892
 Alpha  occ. eigenvalues --   -0.62774  -0.58878  -0.57829  -0.56909  -0.53990
 Alpha  occ. eigenvalues --   -0.49373  -0.48358  -0.48166  -0.33688  -0.32629
 Alpha virt. eigenvalues --    0.15044   0.15654   0.26225   0.29911   0.31412
 Alpha virt. eigenvalues --    0.33813   0.34141   0.35668   0.37927   0.38471
 Alpha virt. eigenvalues --    0.40814   0.44123   0.51637   0.53292   0.53820
 Alpha virt. eigenvalues --    0.57555   0.77606   0.83323   0.89203   0.91572
 Alpha virt. eigenvalues --    0.94195   0.98323   0.98591   0.99114   1.04962
 Alpha virt. eigenvalues --    1.05693   1.08803   1.09094   1.11081   1.12287
 Alpha virt. eigenvalues --    1.15400   1.19113   1.21128   1.22118   1.29727
 Alpha virt. eigenvalues --    1.32019   1.35629   1.35638   1.37180   1.41901
 Alpha virt. eigenvalues --    1.44969   1.46067   1.56631   1.60385   1.62286
 Alpha virt. eigenvalues --    1.72807   1.76337   1.80390   1.82354   1.88701
 Alpha virt. eigenvalues --    2.16577   2.19993   2.23837   2.78213
          Condensed to atoms (all electrons):
              1          2          3          4          5          6
  1  C    5.314539   0.478238  -0.109461  -0.003035  -0.105190   0.460298
  2  C    0.478238   5.162315   0.473118  -0.109193  -0.004086  -0.089942
  3  C   -0.109461   0.473118   5.166174   0.477045  -0.113436  -0.004023
  4  C   -0.003035  -0.109193   0.477045   5.181599   0.471818  -0.109487
  5  C   -0.105190  -0.004086  -0.113436   0.471818   5.159805   0.480498
  6  C    0.460298  -0.089942  -0.004023  -0.109487   0.480498   5.182343
  7  H   -0.035252   0.401115  -0.030470   0.002331  -0.000072   0.002369
  8  H    0.002622  -0.033200   0.398966  -0.032700   0.002458  -0.000131
  9  H   -0.000151   0.002477  -0.032444   0.399783  -0.032282   0.002487
 10  H    0.002542  -0.000122   0.002455  -0.032531   0.399251  -0.033538
 11  H   -0.036786   0.002205  -0.000064   0.002354  -0.030234   0.402807
 12  C    0.256047  -0.050875   0.002198   0.000124   0.001503  -0.061977
 13  H   -0.051776   0.001075  -0.000062   0.000009   0.000062  -0.001535
 14  H   -0.051769   0.001082  -0.000062   0.000009   0.000062  -0.001535
 15  H   -0.050407  -0.000302   0.000212  -0.000001  -0.000057   0.002776
              7          8          9         10         11         12
  1  C   -0.035252   0.002622  -0.000151   0.002542  -0.036786   0.256047
  2  C    0.401115  -0.033200   0.002477  -0.000122   0.002205  -0.050875
  3  C   -0.030470   0.398966  -0.032444   0.002455  -0.000064   0.002198
  4  C    0.002331  -0.032700   0.399783  -0.032531   0.002354   0.000124
  5  C   -0.000072   0.002458  -0.032282   0.399251  -0.030234   0.001503
  6  C    0.002369  -0.000131   0.002487  -0.033538   0.402807  -0.061977
  7  H    0.428529  -0.001454  -0.000037   0.000002  -0.000044  -0.001308
  8  H   -0.001454   0.427275  -0.001420  -0.000037   0.000002  -0.000045
  9  H   -0.000037  -0.001420   0.426049  -0.001373  -0.000037   0.000001
 10  H    0.000002  -0.000037  -0.001373   0.427269  -0.001458  -0.000046
 11  H   -0.000044   0.000002  -0.000037  -0.001458   0.428180  -0.000924
 12  C   -0.001308  -0.000045   0.000001  -0.000046  -0.000924   5.291399
 13  H    0.000016   0.000001   0.000000   0.000001   0.000384   0.381596
 14  H    0.000016   0.000001   0.000000   0.000001   0.000386   0.381616
 15  H    0.001458  -0.000001   0.000000   0.000000   0.000009   0.387640
             13         14         15
  1  C   -0.051776  -0.051769  -0.050407
  2  C    0.001075   0.001082  -0.000302
  3  C   -0.000062  -0.000062   0.000212
  4  C    0.000009   0.000009  -0.000001
  5  C    0.000062   0.000062  -0.000057
  6  C   -0.001535  -0.001535   0.002776
  7  H    0.000016   0.000016   0.001458
  8  H    0.000001   0.000001  -0.000001
  9  H    0.000000   0.000000   0.000000
 10  H    0.000001   0.000001   0.000000
 11  H    0.000384   0.000386   0.000009
 12  C    0.381596   0.381616   0.387640
 13  H    0.500128  -0.026599  -0.023959
 14  H   -0.026599   0.500120  -0.023956
 15  H   -0.023959  -0.023956   0.495003
 Total atomic charges:
              1
  1  C   -0.070456
  2  C   -0.233906
  3  C   -0.230144
  4  C   -0.248125
  5  C   -0.230099
  6  C   -0.231411
  7  H    0.232800
  8  H    0.237664
  9  H    0.236947
 10  H    0.237585
 11  H    0.233220
 12  C   -0.586950
 13  H    0.220660
 14  H    0.220630
 15  H    0.211585
 Sum of Mulliken charges=   0.00000
 Atomic charges with hydrogens summed into heavy atoms:
              1
  1  C   -0.070456
  2  C   -0.001105
  3  C    0.007520
  4  C   -0.011178
  5  C    0.007486
  6  C    0.001809
  7  H    0.000000
  8  H    0.000000
  9  H    0.000000
 10  H    0.000000
 11  H    0.000000
 12  C    0.065925
 13  H    0.000000
 14  H    0.000000
 15  H    0.000000
 Sum of Mulliken charges=   0.00000
 Electronic spatial extent (au):  <R**2>=   711.7463
 Charge=     0.0000 electrons
 Dipole moment (Debye):
    X=     0.3268    Y=    -0.0397    Z=     0.0001  Tot=     0.3292
 Quadrupole moment (Debye-Ang):
   XX=   -37.8669   YY=   -38.2890   ZZ=   -47.4467
   XY=    -0.0614   XZ=     0.0001   YZ=     0.0000
 Octapole moment (Debye-Ang**2):
  XXX=    -4.2274  YYY=     0.5583  ZZZ=     0.0025  XYY=    -1.3426
  XXY=    -0.1276  XXZ=     0.0004  XZZ=     3.9442  YZZ=    -0.6484
  YYZ=    -0.0021  XYZ=     0.0000
 Hexadecapole moment (Debye-Ang**3):
 XXXX=  -588.0736 YYYY=  -270.2222 ZZZZ=   -56.4915 XXXY=     0.0619
 XXXZ=    -0.0011 YYYX=     1.6450 YYYZ=     0.0000 ZZZX=     0.0067
 ZZZY=    -0.0001 XXYY=  -140.6798 XXZZ=  -118.5322 YYZZ=   -65.8852
 XXYZ=     0.0002 YYXZ=    -0.0063 ZZXY=    -1.8380
 N-N= 2.708271241078D+02 E-N=-1.165220818234D+03  KE= 2.677853213063D+02
 1\1\GINC-CSCHP91\SP\RHF\3-21G\C7H8\FULTONCR\03-Nov-1999\0\\#N HF 3-21G
  NMR GEOM=ALLCHECK GUESS=READ\\testing for jmol's handling of nmr calc
 s.. have to do an opt first though, because jmol can't handle a pre-op
 timized structure that just does an nmr calculation alone.\\0,1\C,-0.7
 75749616,0.0000033528,-0.4558642459\C,-0.7757010429,0.0000294698,0.930
 1036262\C,0.4150932756,0.0000079867,1.6386996402\C,1.6232799023,-0.000
 0614246,0.9675235002\C,1.6337388133,-0.0001027926,-0.4179362081\C,0.44
 42077897,-0.000066278,-1.1214590461\H,-1.7086831728,0.0000715037,1.459
 494871\H,0.3962198598,0.0000276805,2.7107529867\H,2.5452466703,-0.0000
 919431,1.5140696146\H,2.5663142659,-0.0001618907,-0.9470863035\H,0.460
 096688,-0.0001043191,-2.1947131052\C,-2.0738226143,0.0001388913,-1.242
 6126859\H,-2.1380203632,0.8788278056,-1.8756613845\H,-2.1372038477,-0.
 8773626879,-1.8773764181\H,-2.9302491464,-0.0009013809,-0.5802077444\\
 Version=HP-PARisc-HPUX-G98RevA.7\HF=-268.240223\RMSD=1.631e-09\Dipole=
 -0.1022056,0.0000571,-0.0795611\PG=C01 [X(C7H8)]\\@


 IF OTHER PEOPLE ARE GOING TO TALK, CONVERSATION IS SIMPLY IMPOSSIBLE.

                                               -- WHISTLER'S PRINCIPLE
 Job cpu time:  0 days  0 hours  0 minutes 32.9 seconds.
 File lengths (MBytes):  RWF=   10 Int=    0 D2E=    0 Chk=    6 Scr=    1
 Normal termination of Gaussian 98.
