 *******************************************************************************
 **                            MOPAC2002 (c) Fujitsu                          **
 *******************************************************************************
 *              MOPAC2002 Version 1.33CAChe    CALC.'D. Mon May 13 08:30:41 2002
 *                                           Apple Computer Inc.      Mac OS 9.x
 *  PM5      - THE PM5 HAMILTONIAN TO BE USED
 *  GEO-OK   - OVERRIDE INTERATOMIC DISTANCE CHECK
 *  NOMM     - DO NOT MAKE MM CORRECTION TO CONH BARRIER
 *  PRECISE  - CRITERIA TO BE INCREASED BY 100 TIMES
 *  NODIIS   - DO NOT USE GDIIS GEOMETRY OPTIMIZER
 *  ANALYT   - USE ANALYTIC DERIVATIVES 
 *   XYZ     - CARTESIAN COORDINATE SYSTEM TO BE USED
 *  T=       - A TIME OF     1.0 HOURS   REQUESTED
 *  DUMP=N   - RESTART FILE WRITTEN EVERY  7200.000 SECONDS
 *  ISOTOPE  - FORCE MATRIX WRITTEN TO DISK (CHAN. 9 )
 *  DENOUT   - DENSITY MATRIX OUTPUT ON CHANNEL 10
 *  BONDS    - FINAL BOND-ORDER MATRIX TO BE PRINTED
 *  LARGE    - EXPANDED OUTPUT TO BE PRINTED
 *  GRAPH    - GENERATE FILE FOR GRAPHICS
 *************************************************************************020000
 GEO-OK PM5 NOMM BONDS PRECISE DENOUT ISOTOPE LARGE ANALYT XYZ NODIIS GRAPH +
 T=1H
 temp, Optimize geometry
 CAChe_MOPAC_coordinate_shift:     -1.584700        0.494400        0.000600
   ATOM   CHEMICAL             X                Y                Z
  NUMBER   SYMBOL         (ANGSTROMS)      (ANGSTROMS)      (ANGSTROMS)
 
    1       C(  1)       -1.584700000  *   0.494400000  *   0.000600000  *  
    2       C(   )       -0.372800000      1.164400000      0.000200000     
    3       C(   )        0.825500000      0.449500000     -0.000100000     
    4       C(  2)        0.786444000  *  -0.941419000  *  -0.000447000  *  
    5       C(  3)       -0.431818000  *  -1.608693000  *   0.000468000  *  
    6       C(  4)       -1.617112000  *  -0.894049000  *   0.000403000  *  
    7       H(  5)       -2.523155000  *   1.064264000  *   0.000868000  *  
    8       H(  6)       -0.355949000  *   2.259566000  *   0.000170000  *  
    9       C(  7)        2.121974000  *   1.181353000  *  -0.000660000  *  
   10       H(  8)        1.719383000  *  -1.520111000  *  -0.000563000  *  
   11       H(  9)       -0.449169000  *  -2.702972000  *   0.000026000  *  
   12       H( 10)       -2.574729000  *  -1.419175000  *   0.000958000  *  
   13       H( 11)        2.077748000  *   2.384088000  *  -0.896054000  *  
   14       H( 12)        2.200553000  *   1.827401000  *   0.891022000  *  
   15       H( 13)        2.986663000  *   0.496320000  *   0.002696000  *  


          CARTESIAN COORDINATES 

    NO.       ATOM           X             Y             Z

     1         C       -1.58470000    0.49440000    0.00060000
     2         C       -0.37280000    1.16440000    0.00020000
     3         C        0.82550000    0.44950000   -0.00010000
     4         C        0.78644400   -0.94141900   -0.00044700
     5         C       -0.43181800   -1.60869300    0.00046800
     6         C       -1.61711200   -0.89404900    0.00040300
     7         H       -2.52315500    1.06426400    0.00086800
     8         H       -0.35594900    2.25956600    0.00017000
     9         C        2.12197400    1.18135300   -0.00066000
    10         H        1.71938300   -1.52011100   -0.00056300
    11         H       -0.44916900   -2.70297200    0.00002600
    12         H       -2.57472900   -1.41917500    0.00095800
    13         H        2.07774800    2.38408800   -0.89605400
    14         H        2.20055300    1.82740100    0.89102200
    15         H        2.98666300    0.49632000    0.00269600


      RHF CALCULATION, NO. OF DOUBLY OCCUPIED LEVELS =   18
 
    Memory needed:      342948 bytes
 Memory available:  2097152000 bytes
 
  H: (PM5):                                                                     
  C: (PM5):                                                                     

           EMPIRICAL FORMULA: C7 H8



      MOLECULAR POINT GROUP   :   C1  

          DIAGONAL MATRIX USED AS START HESSIAN

 CYCLE:   1 TIME:   0.220 TIME LEFT: 60.00M  GRAD.:   168.558 HEAT: 53.27361    
 CYCLE:   2 TIME:   0.282 TIME LEFT: 59.99M  GRAD.:   104.726 HEAT: 27.72098    
 CYCLE:   3 TIME:   0.349 TIME LEFT: 59.99M  GRAD.:    69.288 HEAT: 19.84027    
 CYCLE:   4 TIME:   0.235 TIME LEFT: 59.98M  GRAD.:   116.365 HEAT: 18.84278    
 CYCLE:   5 TIME:   0.414 TIME LEFT: 59.98M  GRAD.:   126.568 HEAT: 18.49665    
 CYCLE:   6 TIME:   0.208 TIME LEFT: 59.97M  GRAD.:    73.408 HEAT: 16.19270    
 CYCLE:   7 TIME:   0.457 TIME LEFT: 59.96M  GRAD.:    30.300 HEAT: 14.82225    
 CYCLE:   8 TIME:   0.414 TIME LEFT: 59.96M  GRAD.:    34.117 HEAT: 14.72289    
 CYCLE:   9 TIME:   0.440 TIME LEFT: 59.95M  GRAD.:    16.405 HEAT: 14.49063    
 CYCLE:  10 TIME:   0.401 TIME LEFT: 59.94M  GRAD.:     8.723 HEAT: 14.40892    
 CYCLE:  11 TIME:   0.202 TIME LEFT: 59.94M  GRAD.:     8.589 HEAT: 14.36131    
 CYCLE:  12 TIME:   0.282 TIME LEFT: 59.93M  GRAD.:    14.285 HEAT: 14.35072    
 CYCLE:  13 TIME:   0.203 TIME LEFT: 59.93M  GRAD.:     5.581 HEAT: 14.27268    
 CYCLE:  14 TIME:   0.447 TIME LEFT: 59.92M  GRAD.:    14.313 HEAT: 14.29643    
 CYCLE:  15 TIME:   0.263 TIME LEFT: 59.92M  GRAD.:     7.541 HEAT: 14.22696    
 CYCLE:  16 TIME:   0.385 TIME LEFT: 59.91M  GRAD.:    12.070 HEAT: 14.23891    
 CYCLE:  17 TIME:   0.212 TIME LEFT: 59.91M  GRAD.:     8.847 HEAT: 14.21317    
 CYCLE:  18 TIME:   0.214 TIME LEFT: 59.91M  GRAD.:     6.915 HEAT: 14.18730    
 CYCLE:  19 TIME:   0.275 TIME LEFT: 59.90M  GRAD.:     9.287 HEAT: 14.18779    
 CYCLE:  20 TIME:   0.197 TIME LEFT: 59.90M  GRAD.:     4.593 HEAT: 14.15631    
 CYCLE:  21 TIME:   0.216 TIME LEFT: 59.89M  GRAD.:     5.838 HEAT: 14.14203    
 CYCLE:  22 TIME:   0.228 TIME LEFT: 59.89M  GRAD.:     8.407 HEAT: 14.12403    
 CYCLE:  23 TIME:   0.221 TIME LEFT: 59.89M  GRAD.:     4.233 HEAT: 14.09678    
 CYCLE:  24 TIME:   0.215 TIME LEFT: 59.88M  GRAD.:     4.707 HEAT: 14.10219    
 CYCLE:  25 TIME:   0.212 TIME LEFT: 59.88M  GRAD.:     2.668 HEAT: 14.09405    
 CYCLE:  26 TIME:   0.220 TIME LEFT: 59.88M  GRAD.:     2.792 HEAT: 14.09186    
 CYCLE:  27 TIME:   0.247 TIME LEFT: 59.87M  GRAD.:     0.555 HEAT: 14.08992    
 CYCLE:  28 TIME:   0.225 TIME LEFT: 59.87M  GRAD.:     0.579 HEAT: 14.08922    
 CYCLE:  29 TIME:   0.214 TIME LEFT: 59.87M  GRAD.:     1.715 HEAT: 14.08594    
 CYCLE:  30 TIME:   0.217 TIME LEFT: 59.86M  GRAD.:     1.003 HEAT: 14.08664    
 CYCLE:  31 TIME:   0.267 TIME LEFT: 59.86M  GRAD.:     0.363 HEAT: 14.08528    
 CYCLE:  32 TIME:   0.205 TIME LEFT: 59.85M  GRAD.:     0.262 HEAT: 14.08476    
 CYCLE:  33 TIME:   0.293 TIME LEFT: 59.85M  GRAD.:     0.055 HEAT: 14.08509    
 CYCLE:  34 TIME:   0.213 TIME LEFT: 59.85M  GRAD.:     0.029 HEAT: 14.08506    

     RMS GRADIENT =  0.02895  IS LESS THAN CUTOFF =  0.05000



 -------------------------------------------------------------------------------
 GEO-OK PM5 NOMM BONDS PRECISE DENOUT ISOTOPE LARGE ANALYT XYZ NODIIS GRAPH +
 T=1H
 temp, Optimize geometry
 CAChe_MOPAC_coordinate_shift:     -1.584700        0.494400        0.000600


     GEOMETRY OPTIMISED USING EIGENVECTOR FOLLOWING (EF).     
     SCF FIELD WAS ACHIEVED                                   


                                  PM5  CALCULATION
                                                       MOPAC2000 Version 1.33
                                                       Mon May 13 08:30:50 2002




          FINAL HEAT OF FORMATION =         14.08506 KCAL =         58.93188 KJ


          TOTAL ENERGY            =       -964.09004 EV
          ELECTRONIC ENERGY       =      -4240.73871 EV  POINT GROUP:     C1  
          CORE-CORE REPULSION     =       3276.64866 EV

          IONIZATION POTENTIAL    =          9.10658
          NO. OF FILLED LEVELS    =        18
          MOLECULAR WEIGHT        =     92.140

          MOLECULAR DIMENSIONS (Angstroms)

            Atom       Atom       Distance
            H    15    H    12     5.88013
            H    11    H     8     4.65982
            H    14    H    13     1.77506


          SCF CALCULATIONS =               43
          COMPUTATION TIME =           9.57 SECONDS
          WALL CLOCK TIME  =              9 SECONDS




   ATOM   CHEMICAL             X                Y                Z
  NUMBER   SYMBOL         (ANGSTROMS)      (ANGSTROMS)      (ANGSTROMS)
 
    1       C(  1)       -1.585445966  *   0.496651069  *  -0.000122071  *  
    2       C(   )       -0.372800000      1.164400000      0.000200000     
    3       C(   )        0.825500000      0.449500000     -0.000100000     
    4       C(  2)        0.783927593  *  -0.942294538  *  -0.000814026  *  
    5       C(  3)       -0.433317891  *  -1.605956970  *  -0.001142582  *  
    6       C(  4)       -1.619527043  *  -0.890119448  *  -0.000794055  *  
    7       H(  5)       -2.520132728  *   1.066571317  *   0.000158894  *  
    8       H(  6)       -0.357658777  *   2.259370391  *   0.000671668  *  
    9       C(  7)        2.122995853  *   1.175731994  *   0.007818737  *  
   10       H(  8)        1.712726108  *  -1.522528974  *  -0.001001376  *  
   11       H(  9)       -0.454318182  *  -2.700511381  *  -0.001651370  *  
   12       H( 10)       -2.579382845  *  -1.415781342  *  -0.001293073  *  
   13       H( 11)        2.165346960  *   1.913800638  *  -0.811914514  *  
   14       H( 12)        2.255687592  *   1.716308880  *   0.961501886  *  
   15       H( 13)        2.981067135  *   0.493363063  *  -0.113188751  *  


      MOLECULAR POINT GROUP   :   C1  


                  EIGENVALUES

 -36.73906 -31.46621 -29.71925 -26.25864 -22.27742 -21.23842 -16.73493 -15.40988
 -15.37731 -14.01086 -13.59971 -13.40524 -12.46644 -12.37986 -11.54618 -11.27450
  -9.44143  -9.10658   0.70230   0.76844   2.82886   3.06496   3.39335   3.40688
   3.54762   3.78603   3.79227   4.08435   4.12285   4.25554   4.95675   4.99103
   5.09366   5.16402   5.88569   5.90406


              NET ATOMIC CHARGES AND DIPOLE CONTRIBUTIONS

  ATOM NO.   TYPE          CHARGE      No. of ELECS.   s-Pop       p-Pop       
    1          C          -0.143870        4.1439     1.25862     2.88525
    2          C          -0.174900        4.1749     1.26212     2.91278
    3          C          -0.039534        4.0395     1.23482     2.80471
    4          C          -0.172944        4.1729     1.26217     2.91077
    5          C          -0.144526        4.1445     1.25885     2.88567
    6          C          -0.169299        4.1693     1.26091     2.90839
    7          H           0.154630        0.8454     0.84537
    8          H           0.157052        0.8429     0.84295
    9          C          -0.250030        4.2500     1.25635     2.99368
   10          H           0.156966        0.8430     0.84303
   11          H           0.154637        0.8454     0.84536
   12          H           0.156687        0.8433     0.84331
   13          H           0.105781        0.8942     0.89422
   14          H           0.106612        0.8934     0.89339
   15          H           0.102738        0.8973     0.89726
 DIPOLE           X         Y         Z       TOTAL
 POINT-CHG.     0.266     0.175     0.014     0.319
 HYBRID         0.003     0.004     0.002     0.005
 SUM            0.269     0.178     0.016     0.324


          CARTESIAN COORDINATES 

    NO.       ATOM               X         Y         Z

     1         C                 -1.5854    0.4967   -0.0001
     2         C                 -0.3728    1.1644    0.0002
     3         C                  0.8255    0.4495   -0.0001
     4         C                  0.7839   -0.9423   -0.0008
     5         C                 -0.4333   -1.6060   -0.0011
     6         C                 -1.6195   -0.8901   -0.0008
     7         H                 -2.5201    1.0666    0.0002
     8         H                 -0.3577    2.2594    0.0007
     9         C                  2.1230    1.1757    0.0078
    10         H                  1.7127   -1.5225   -0.0010
    11         H                 -0.4543   -2.7005   -0.0017
    12         H                 -2.5794   -1.4158   -0.0013
    13         H                  2.1653    1.9138   -0.8119
    14         H                  2.2557    1.7163    0.9615
    15         H                  2.9811    0.4934   -0.1132


          ATOMIC ORBITAL ELECTRON POPULATIONS

   1.25862   0.96218   0.92848   0.99460   1.26212   0.90618   0.98873   1.01787
   1.23482   0.91744   0.90930   0.97796   1.26217   0.96763   0.92574   1.01740
   1.25885   0.90616   0.98490   0.99462   1.26091   0.96889   0.92732   1.01218
   0.84537   0.84295   1.25635   0.94622   1.01282   1.03464   0.84303   0.84536
   0.84331   0.89422   0.89339   0.89726

          BONDING CONTRIBUTION OF EACH M.O.

  1.6459  1.6758  1.6630  1.7369  1.8222  1.8471  2.0706  2.0126  2.0345  2.0292
  2.1416  2.1515  2.0697  2.0222  2.1669  2.1650  1.9876  2.0101 -1.9909 -2.0119
 -2.1684 -1.9965 -2.0966 -2.0840 -1.9654 -1.8938 -1.9111 -1.9465 -1.9444 -1.9359
 -1.8657 -1.8542 -1.9409 -1.9391 -1.8885 -1.8184





                    BOND ORDERS AND VALENCIES


                 C   1      C   2      C   3      C   4      C   5      C   6
 ------------------------------------------------------------------------------
     C    1   3.912934
     C    2   1.418683   3.911150
     C    3   0.007119   1.374457   3.927787
     C    4   0.109832   0.008763   1.387493   3.910866
     C    5   0.007026   0.110834   0.007112   1.405351   3.912913
     C    6   1.397545   0.007301   0.112222   0.007319   1.409872   3.912408
     H    7   0.933992   0.009763   0.009533   0.000032   0.009410   0.009792
     H    8   0.009511   0.933277   0.009930   0.008888   0.000068   0.009527
     C    9   0.008784   0.011272   0.987778   0.011831   0.008930   0.000513
     H   10   0.000068   0.008970   0.010030   0.932764   0.009459   0.009429
     H   11   0.009487   0.000033   0.009429   0.009765   0.934015   0.009784
     H   12   0.009778   0.009429   0.000046   0.009507   0.009781   0.933635
     H   13   0.000012   0.004479   0.004262   0.009068   0.000598   0.002310
     H   14   0.000022   0.006102   0.004339   0.009256   0.000399   0.003107
     H   15   0.001074   0.007789   0.004036   0.000998   0.000058   0.000052


                 H   7      H   8      C   9      H  10      H  11      H  12
 ------------------------------------------------------------------------------
     H    7   0.976090
     H    8   0.000195   0.975335
     C    9   0.001255   0.000438   3.919252
     H   10   0.000226   0.001375   0.000401   0.975362
     H   11   0.001448   0.000225   0.001272   0.000191   0.976087
     H   12   0.000159   0.001359   0.000229   0.001351   0.000163   0.975449
     H   13   0.000000   0.000358   0.960869   0.000002   0.000154   0.000004
     H   14   0.000003   0.000185   0.958469   0.000008   0.000102   0.000004
     H   15   0.000281   0.000000   0.967211   0.001088   0.000019   0.000006


                 H  13      H  14      H  15
 ------------------------------------------
     H   13   0.988810
     H   14   0.003251   0.988634
     H   15   0.003445   0.003388   0.989445




 SELF-Q:    SELF OR INACTIVE CHARGE
 ACTIV-Q:   CHARGE WHICH IS USED TO FORM BONDS
 TOTAL-Q:   SELF-Q + ACTIV-Q
 FREE-VA:   TOTAL-Q - VALENCE
 STAT.PROM: TOTAL-Q - CORE CHARGE
 MULL.PROM: -CHARGE (SEE ABOVE)

      SELF-Q    ACTIV-Q   TOTAL-Q   VALENCE   FREE-VA STAT.PROM MULL.PROM


  1   0.23094   3.91293   4.14387   3.91293   0.00000   0.14387   0.14387

  2   0.26375   3.91115   4.17490   3.91115   0.00000   0.17490   0.17490

  3   0.11175   3.92779   4.03953   3.92779   0.00000   0.03953   0.03953

  4   0.26208   3.91087   4.17294   3.91087   0.00000   0.17294   0.17294

  5   0.23161   3.91291   4.14453   3.91291   0.00000   0.14453   0.14453

  6   0.25689   3.91241   4.16930   3.91241   0.00000   0.16930   0.16930

  7  -0.13072   0.97609   0.84537   0.97609   0.00000  -0.15463  -0.15463

  8  -0.13239   0.97533   0.84295   0.97533   0.00000  -0.15705  -0.15705

  9   0.33078   3.91925   4.25003   3.91925   0.00000   0.25003   0.25003

 10  -0.13233   0.97536   0.84303   0.97536   0.00000  -0.15697  -0.15697

 11  -0.13072   0.97609   0.84536   0.97609   0.00000  -0.15464  -0.15464

 12  -0.13214   0.97545   0.84331   0.97545   0.00000  -0.15669  -0.15669

 13  -0.09459   0.98881   0.89422   0.98881   0.00000  -0.10578  -0.10578

 14  -0.09525   0.98863   0.89339   0.98863   0.00000  -0.10661  -0.10661

 15  -0.09218   0.98944   0.89726   0.98944   0.00000  -0.10274  -0.10274

 CLOSED SHELL



           DATA FOR GRAPH WRITTEN TO DISK



 TOTAL CPU TIME:             9.63 SECONDS

 == MOPAC DONE ==
